LAMMPS data file via write_data, version 12 Dec 2018, timestep = 5000

1000 atoms
1 atom types

-1.3049132306127120e-01 3.1152991323060721e+01 xlo xhi
-1.3049132306127120e-01 3.1152991323060721e+01 ylo yhi
-1.3049132306127120e-01 3.1152991323060721e+01 zlo zhi

Masses

1 18.015

Atoms # atomic

5 1 1.1787679013602748e+00 1.6185634038522572e+00 1.1106716407699386e+00 0 0 0
98 1 2.7894581260280912e+01 1.2516220110962990e+01 3.0022897333160889e+00 0 0 0
513 1 1.8908055566262430e+01 1.5339568884257991e+01 2.9873738822173390e+00 0 0 0
7 1 4.1984832884429917e+00 1.5629513750332011e+00 4.5088227217166041e+00 0 0 0
10 1 5.9512775522108292e+00 2.7477033729447724e+00 2.9733904235421580e+00 0 0 0
73 1 2.5171217435877015e+01 6.1384351956477667e+00 2.0280948419492406e-03 0 0 0
13 1 7.5276463023018678e+00 1.1861468206211998e+00 1.5101897092563250e+00 0 0 0
3 1 2.8776854011650221e+00 -2.7139209119654242e-02 2.6602596875106683e+00 0 0 0
28 1 2.1966173143586069e+01 3.0394994641440269e+00 3.8897977262393113e-01 0 0 0
15 1 1.0949740050153359e+01 1.5481129656586876e+00 4.4167634983068691e+00 0 0 0
18 1 1.2289509462680000e+01 3.0533795338429472e+00 2.5703298287515874e+00 0 0 0
21 1 1.4256784238677293e+01 8.0905274414986295e-01 1.1725930306777284e+00 0 0 0
109 1 6.0915795411495814e+00 -1.7879549912842921e-02 5.8243498226722057e+00 0 0 0
23 1 1.6965483813603875e+01 1.4238303499546190e+00 4.6184551615238876e+00 0 0 0
26 1 1.8325811327718569e+01 3.4881692324514089e+00 3.1501536596180792e+00 0 0 0
29 1 2.0060756106097639e+01 1.6483684416075115e+00 1.7921261318781212e+00 0 0 0
35 1 2.8082079170561403e+01 -5.7655556598138702e-02 3.1142247451871614e+00 0 0 0
31 1 2.3412426945569340e+01 1.5147691574264217e+00 4.5996174736211231e+00 0 0 0
510 1 1.5900035411721756e+01 1.5255100592335138e+01 -5.6575426051764521e-03 0 0 0
81 1 3.0793668534569928e+01 1.2584669311405742e+01 -6.5353832704878045e-03 -1 0 0
34 1 2.4861144853732640e+01 3.0562320638906670e+00 3.1615337988627075e+00 0 0 0
37 1 2.6857112820129775e+01 1.5030047942834883e+00 1.4416634099573455e+00 0 0 0
189 1 1.2085746667040768e+01 1.2053876905409371e+01 6.0071161586911694e+00 0 0 0
2 1 3.1148438498763522e+01 2.9388661052305562e+00 2.9674275801300576e+00 -1 0 0
92 1 1.7174167538840500e+01 1.3781775047730338e+01 4.1193220352637292e+00 0 0 0
39 1 2.9478392873057793e+01 1.4209021564489375e+00 4.5266033078085544e+00 0 0 0
514 1 2.1713881994875006e+01 1.5437128551566479e+01 -5.4375145323778296e-02 0 0 0
88 1 1.0572858663008818e+01 1.3754168118763186e+01 4.5183819819363640e+00 0 0 0
11 1 9.3905150798829808e+00 3.5423966906265647e-02 2.7035284321848456e+00 0 0 0
6 1 1.2654970807765917e+00 4.5338665113680889e+00 4.3241794257848305e+00 0 0 0
43 1 3.0163404545399182e+00 6.1482802628976927e+00 2.9831296075648819e+00 0 0 0
45 1 1.5655149853543084e+00 7.7367381469134271e+00 1.4680643810715490e+00 0 0 0
8 1 4.6971255452787322e+00 4.7343201243176578e+00 1.4248383870741810e+00 0 0 0
117 1 1.2382987263953655e+01 -1.2984406890046590e-01 5.9130066987433691e+00 0 0 0
47 1 4.5634175916095616e+00 7.6087829322971761e+00 4.5620011695029703e+00 0 0 0
99 1 2.6318778196616865e+01 1.4087823997160312e+01 1.3182260152575342e+00 0 0 0
14 1 7.3543310337140184e+00 4.2653303014551973e+00 4.3306154909700050e+00 0 0 0
51 1 8.7818492454651800e+00 5.8967174517609013e+00 2.7278837089713521e+00 0 0 0
86 1 9.2409646259983376e+00 1.2266187553597266e+01 2.7855462648722891e+00 0 0 0
16 1 1.0712643219793225e+01 4.5939996397067828e+00 1.0123975999444292e+00 0 0 0
22 1 1.3839429070517145e+01 4.3530881816577951e+00 4.4539959497721400e+00 0 0 0
96 1 2.3285784313319738e+01 1.3975471645306889e+01 4.7057752922031790e+00 0 0 0
59 1 1.5040735969395895e+01 6.1616699111568263e+00 3.1787467347068730e+00 0 0 0
24 1 1.6702178907310433e+01 4.6501792544623006e+00 1.5246196739547333e+00 0 0 0
61 1 1.4168629156477740e+01 7.6227945976085136e+00 1.1000496624203175e+00 0 0 0
30 1 1.9857142600639790e+01 4.9939287030260369e+00 4.5987648336947800e+00 0 0 0
69 1 1.9866538817110495e+01 7.4776932153736322e+00 1.5844183967412790e+00 0 0 0
32 1 2.3585108460223804e+01 4.7047559821881668e+00 1.6883106505193726e+00 0 0 0
67 1 2.1846836689387228e+01 6.4282850668980318e+00 3.0971610549516746e+00 0 0 0
38 1 2.6547804337465671e+01 4.5848255361264521e+00 4.3114841486469633e+00 0 0 0
94 1 2.1662081941327187e+01 1.2089979086938795e+01 3.5070023683590246e+00 0 0 0
75 1 2.8245233350221330e+01 6.3538937266662154e+00 3.0845894898676849e+00 0 0 0
40 1 2.9443131736447061e+01 4.7612871735068927e+00 1.1958598780923746e+00 0 0 0
79 1 2.9723631596226539e+01 7.9963892570524120e+00 5.1079770521663610e+00 0 0 0
95 1 2.0449782923504486e+01 1.3563981244267319e+01 1.5933501129667373e+00 0 0 0
91 1 1.3947659593178363e+01 1.4140695377209102e+01 1.6792728485890431e+00 0 0 0
46 1 1.4715796170683491e+00 1.0854036057548376e+01 4.7574141553627545e+00 0 0 0
87 1 7.7742871494601564e+00 1.4215114280150726e+01 1.4223037859404049e+00 0 0 0
48 1 4.2496374409463611e+00 1.0910183659007172e+01 1.6392646547021557e+00 0 0 0
50 1 5.9572252840626065e+00 8.9805039253539078e+00 2.7555981202258879e+00 0 0 0
53 1 7.4392326890054807e+00 7.7596432316686030e+00 1.2889818969637323e+00 0 0 0
54 1 7.7633361694665188e+00 1.0673267674196760e+01 4.4833587199897442e+00 0 0 0
55 1 1.0462199382361559e+01 7.4613584210812443e+00 4.1765867787507078e+00 0 0 0
56 1 1.1222197489935816e+01 1.0795872453618493e+01 9.4244456733960269e-01 0 0 0
58 1 1.2344416265521209e+01 9.2128302366563535e+00 3.0479567315703511e+00 0 0 0
63 1 1.6964124138465632e+01 7.5358390202054011e+00 4.3632887791669690e+00 0 0 0
62 1 1.3870585400102328e+01 1.0617970586070680e+01 4.5181965926949221e+00 0 0 0
64 1 1.7241247099174569e+01 1.0605734600498545e+01 1.2178251264989006e+00 0 0 0
66 1 1.8719794068156602e+01 9.1361586003917363e+00 2.9216377119568153e+00 0 0 0
70 1 2.0231566847524697e+01 1.0527997465973037e+01 4.6859739880372455e+00 0 0 0
71 1 2.3481795590182113e+01 7.7515806103466769e+00 4.4535983041433695e+00 0 0 0
72 1 2.3247167639466856e+01 1.0972925623875454e+01 1.5520969330948644e+00 0 0 0
77 1 2.6691875572229876e+01 7.6741223546646591e+00 1.4017758496812163e+00 0 0 0
78 1 2.6505863976772609e+01 1.0741304024572514e+01 4.4142639577221034e+00 0 0 0
74 1 2.4838338202028645e+01 9.2625831314229554e+00 2.8015344083164351e+00 0 0 0
42 1 3.1122674822449191e+01 9.4075129072953505e+00 3.1950029538238693e+00 -1 0 0
90 1 1.5421938223235824e+01 1.1929944469895320e+01 2.7672966491330038e+00 0 0 0
80 1 2.9446759334382332e+01 1.0968761854578094e+01 1.4168710451786621e+00 0 0 0
100 1 2.9815932527647291e+01 1.4049759044834857e+01 4.5306347489861345e+00 0 0 0
82 1 2.7928297251534491e+00 1.2671633797433611e+01 3.0398182566701877e+00 0 0 0
83 1 1.0881692532939908e+00 1.4257161522993407e+01 1.5864847018753743e+00 0 0 0
84 1 4.4501543436804294e+00 1.4183536425274330e+01 4.6432065624109331e+00 0 0 0
157 1 1.2239016649263490e+01 5.9887368330405071e+00 6.0014133697516563e+00 0 0 0
65 1 1.8609103458077367e+01 5.9089662151067355e+00 -1.7570605388688890e-02 0 0 0
104 1 2.4788792392181298e+00 2.9493652559073031e+00 6.1140936082053843e+00 0 0 0
68 1 2.1653953515698330e+01 8.8904564161253941e+00 1.2524365953962113e-01 0 0 0
20 1 1.5602013985327938e+01 2.7462271302803147e+00 -7.7335359705965639e-02 0 0 0
33 1 2.5115192476930485e+01 -1.2082842391559453e-01 3.4243547597589735e-01 0 0 0
152 1 9.4383543504360397e+00 9.2010618610814898e+00 6.1128717210193448e+00 0 0 0
85 1 5.7964862294810962e+00 1.2658108604460619e+01 2.1553510541309379e-01 0 0 0
610 1 1.5731329332115893e+01 1.5180823455529188e+01 5.9097810394242769e+00 0 0 0
128 1 2.1642453223287173e+01 2.9796615350021809e+00 6.1259536250866722e+00 0 0 0
144 1 2.7745268185276646e+00 8.8612306881111564e+00 5.9455780585897200e+00 0 0 0
4 1 3.1180003480311753e+00 3.0061619059681179e+00 -8.1755234487123629e-03 0 0 0
97 1 2.5001924967711766e+01 1.2221833626066225e+01 -7.2744325679450855e-02 0 0 0
197 1 2.4834708955926359e+01 1.2586000155038532e+01 6.1061963565530588e+00 0 0 0
193 1 1.8717074591218562e+01 1.2246735153351679e+01 6.0532679491880117e+00 0 0 0
173 1 2.5140233026574595e+01 6.0937657472457447e+00 6.1059709643126823e+00 0 0 0
149 1 6.1119096542374871e+00 5.9160924163049682e+00 6.0014239851242932e+00 0 0 0
168 1 2.1933134585296433e+01 9.1722491430886706e+00 6.0650529111415858e+00 0 0 0
136 1 2.7775779086865498e+01 2.8484875912568941e+00 6.0117927446611148e+00 0 0 0
41 1 2.8013094182396309e-02 6.2717225930734335e+00 5.2653951467430460e-02 0 0 0
105 1 1.2163499721799442e+00 1.3966120090450296e+00 7.7612685870584555e+00 0 0 0
102 1 -5.2278836867831469e-02 3.1986180258513319e+00 9.5668480227988901e+00 0 0 0
606 1 8.9028084200478439e+00 1.5286974453360433e+01 6.4100524370847474e+00 0 0 0
135 1 2.8129608475121895e+01 -5.5013294759397979e-02 9.3586881369597688e+00 0 0 0
233 1 2.4780105701646360e+01 7.1507750076328591e-02 1.2268792420962724e+01 0 0 0
107 1 4.4962801972625650e+00 1.8201365895098269e+00 1.0899149193747142e+01 0 0 0
110 1 5.9187459743909088e+00 2.9323877815090795e+00 9.0768906273929506e+00 0 0 0
103 1 2.8142313263462500e+00 1.4888036876276800e-01 9.4053798490994893e+00 0 0 0
113 1 7.4282938069327473e+00 1.1879238797097973e+00 7.6785286928652887e+00 0 0 0
160 1 1.5567537828158603e+01 9.2215052577013061e+00 6.3288909551108228e+00 0 0 0
115 1 1.0455502739512360e+01 1.2869354209550710e+00 1.0752843957355541e+01 0 0 0
118 1 1.2018274965586787e+01 2.8655660848805544e+00 9.1899114266236630e+00 0 0 0
613 1 1.8645332173571930e+01 1.5464399544807312e+01 9.3497671739793251e+00 0 0 0
609 1 1.2399468101579444e+01 1.5220167727466206e+01 9.2201294299105481e+00 0 0 0
121 1 1.3634095892060207e+01 1.4697252232923459e+00 7.5628719396028776e+00 0 0 0
112 1 9.4180306218109671e+00 2.9569746768348293e+00 6.1747879219202497e+00 0 0 0
123 1 1.6687095548622466e+01 1.3242036062050340e+00 1.0602673435929267e+01 0 0 0
126 1 1.8288666391468603e+01 2.8155115291815718e+00 9.1795753072721151e+00 0 0 0
129 1 1.9976839105883748e+01 1.3937949282254651e+00 7.6168671456134573e+00 0 0 0
131 1 2.3212092912439815e+01 1.4350134558321022e+00 1.0565891343579629e+01 0 0 0
196 1 2.3269191335921537e+01 1.3829021783312443e+01 1.0847279317384270e+01 0 0 0
198 1 2.8268538569045102e+01 1.2491356039995290e+01 9.3630861750159617e+00 0 0 0
134 1 2.4739721360307040e+01 2.9798582605964761e+00 9.1556430627640601e+00 0 0 0
137 1 2.6483065872551489e+01 1.3121522396163043e+00 7.9197796226293455e+00 0 0 0
200 1 2.9667617146777975e+01 1.3974995804727119e+01 1.0804948940406533e+01 0 0 0
176 1 2.7737033879296671e+01 9.2689106439206768e+00 6.3908210892987176e+00 0 0 0
139 1 2.9719342987425669e+01 1.3017467564110459e+00 1.1180353346400373e+01 0 0 0
617 1 2.5177047717588184e+01 1.5321030611053343e+01 9.4506089578379999e+00 0 0 0
106 1 1.6023991940186935e+00 4.6970709793052166e+00 1.1172659062854100e+01 0 0 0
143 1 2.7469825016854781e+00 5.8924475136652203e+00 9.1471799241432521e+00 0 0 0
145 1 1.1550315560771549e+00 7.5359658010211827e+00 7.4746703681734310e+00 0 0 0
108 1 4.4058495427032343e+00 4.4301432303374968e+00 7.4051482996379754e+00 0 0 0
194 1 2.1722735217339491e+01 1.2175695787885610e+01 9.2416350047281934e+00 0 0 0
114 1 7.4897386685878597e+00 4.7918059666784494e+00 1.0632255812545081e+01 0 0 0
151 1 9.0218758726165671e+00 6.5359901365919590e+00 9.3184116877075951e+00 0 0 0
116 1 1.0696855471033613e+01 4.6221428665533590e+00 7.8661859507337919e+00 0 0 0
122 1 1.3826969836580206e+01 4.4481842791019792e+00 1.0530745625672015e+01 0 0 0
159 1 1.5670342192548476e+01 6.1348213935330493e+00 9.3067469926360538e+00 0 0 0
124 1 1.6867124341537178e+01 4.3466675586823644e+00 7.6721312741826422e+00 0 0 0
161 1 1.3741800279425300e+01 7.4479508085108543e+00 7.9061089025694926e+00 0 0 0
163 1 1.7105396640236261e+01 7.6049554773429113e+00 1.0864204669067504e+01 0 0 0
130 1 1.9976889352015803e+01 4.2455229313253833e+00 1.0372686295678575e+01 0 0 0
195 1 2.0099271711613810e+01 1.3964107740029812e+01 7.5562060554889143e+00 0 0 0
187 1 7.3757745999571478e+00 1.3990566767057439e+01 8.1183293271141039e+00 0 0 0
132 1 2.3378775660922756e+01 4.4654370275279449e+00 7.3674695654114206e+00 0 0 0
167 1 2.1744319648811565e+01 6.0576571982545948e+00 8.9936791693018154e+00 0 0 0
138 1 2.6541134532484158e+01 4.2837426353574468e+00 1.1073336575080161e+01 0 0 0
199 1 2.6882375803405175e+01 1.4074270740707162e+01 7.7218421351416300e+00 0 0 0
175 1 2.7959653799072790e+01 6.1243696770942186e+00 9.5246105961157070e+00 0 0 0
140 1 2.9424399286858161e+01 4.4830507142953548e+00 7.9882234889173276e+00 0 0 0
146 1 1.7075878636899002e+00 1.1003107836445208e+01 1.0703520289082878e+01 0 0 0
190 1 1.5473478563532684e+01 1.2145543805450496e+01 9.1121053316769149e+00 0 0 0
147 1 4.1062293829587153e+00 7.8774816467026323e+00 1.0621437979391379e+01 0 0 0
148 1 4.2987565588886074e+00 1.1002817248149356e+01 7.1609599322702939e+00 0 0 0
150 1 6.0221874970808509e+00 9.6336922833481182e+00 9.0508041715381502e+00 0 0 0
153 1 7.4620703329015932e+00 7.7580806362234140e+00 7.5313915725003655e+00 0 0 0
154 1 7.7125111877723302e+00 1.0987221187893523e+01 1.0566696356696175e+01 0 0 0
188 1 1.0781840125666522e+01 1.4082646898218174e+01 1.0855092150963516e+01 0 0 0
155 1 1.0839320904744760e+01 7.7230493476742765e+00 1.0662103110257730e+01 0 0 0
156 1 1.0830166730325050e+01 1.0745601290302965e+01 7.6109501977545513e+00 0 0 0
158 1 1.2403048581708536e+01 9.3029014864468955e+00 9.3071138574359225e+00 0 0 0
162 1 1.4012455475791265e+01 1.0724820246524915e+01 1.1098471754861258e+01 0 0 0
164 1 1.7215576834606139e+01 1.0876427127475287e+01 7.6707896155991273e+00 0 0 0
191 1 1.4096978542142605e+01 1.3680602408426243e+01 7.3577292410671866e+00 0 0 0
165 1 1.8504180039696635e+01 6.4718874426484074e+00 6.2911695984612210e+00 0 0 0
169 1 2.0416703798918295e+01 7.9200174469101867e+00 7.7106006808892236e+00 0 0 0
166 1 1.8799465388541780e+01 9.2300124866089366e+00 9.5770021859319883e+00 0 0 0
170 1 2.0391073387510364e+01 1.0402120463438349e+01 1.1235171269878485e+01 0 0 0
171 1 2.3544843048249380e+01 7.3500731712885283e+00 1.0842394050573905e+01 0 0 0
172 1 2.3387551350595228e+01 1.0913642087365343e+01 7.7127515703542802e+00 0 0 0
192 1 1.6861573298236742e+01 1.3759961132932760e+01 1.0783862938278526e+01 0 0 0
212 1 9.0843121384163759e+00 3.1325883624311208e+00 1.2062760919922216e+01 0 0 0
177 1 2.6508658132983857e+01 7.9120957514959933e+00 7.9069900216692730e+00 0 0 0
178 1 2.6747656319683561e+01 1.0738176566773287e+01 1.0885003851686582e+01 0 0 0
174 1 2.4979511620145605e+01 9.3303686224208882e+00 9.4208287224513150e+00 0 0 0
184 1 4.1962578503538710e+00 1.4139358365241717e+01 1.0926306545440143e+01 0 0 0
179 1 2.9515136608273039e+01 8.0223493163252950e+00 1.0915396904531997e+01 0 0 0
142 1 3.1040580442309007e+01 9.4447760298859951e+00 9.1167557660274987e+00 -1 0 0
180 1 2.9672046218358496e+01 1.0984475606839670e+01 7.7724539280770655e+00 0 0 0
249 1 5.8106915769834790e+00 6.4018448214945805e+00 1.2252959815171222e+01 0 0 0
182 1 3.0003099948689531e+00 1.2739902649308620e+01 9.0040675365270015e+00 0 0 0
183 1 1.2170956388480152e+00 1.4248269493862241e+01 7.7021595267270415e+00 0 0 0
186 1 9.2461056122297176e+00 1.2275143985511695e+01 9.1545332324513282e+00 0 0 0
241 1 3.1140634849730585e+01 6.4771381876508762e+00 1.2354873386431272e+01 -1 0 0
141 1 3.0868522224409404e+01 5.8038929748237864e+00 6.2683287298913477e+00 -1 0 0
614 1 2.1892053262844811e+01 1.5447861921283478e+01 6.3624332119554117e+00 0 0 0
257 1 1.2106238627806771e+01 5.8883267412874760e+00 1.1861202495280464e+01 0 0 0
297 1 2.5037297062998473e+01 1.2613117702397357e+01 1.2031712057281574e+01 0 0 0
228 1 2.1794174951399459e+01 2.8301677493643855e+00 1.2180533735375105e+01 0 0 0
252 1 9.2925013628031223e+00 9.2373633376462774e+00 1.2055976231040832e+01 0 0 0
285 1 5.9223616474828393e+00 1.2506110402252098e+01 1.2149984137284834e+01 0 0 0
281 1 1.6019163634544081e-01 1.2837312121397298e+01 1.2161738153829393e+01 0 0 0
710 1 1.5616481631540825e+01 1.5319706826143992e+01 1.2341000674701618e+01 0 0 0
220 1 1.5322088810515586e+01 3.0660711631290898e+00 1.2237610229488896e+01 0 0 0
293 1 1.8849793677781154e+01 1.2240561705564440e+01 1.2123530914416525e+01 0 0 0
185 1 6.1012846593474208e+00 1.2619152279812093e+01 6.1288064529542927e+00 0 0 0
120 1 1.5152936357669549e+01 2.8196872899342398e+00 6.2385213207701629e+00 0 0 0
181 1 3.1026715556485016e+01 1.2520759543203113e+01 6.2632965427255263e+00 -1 0 0
205 1 1.5061026572034710e+00 1.3964288080295209e+00 1.3996721726207106e+01 0 0 0
227 1 2.1966758656856147e+01 -7.2844309636391574e-02 1.5124475728620220e+01 0 0 0
207 1 4.4928101334730828e+00 1.2611166721152436e+00 1.7383424772314342e+01 0 0 0
210 1 6.0159184544789754e+00 2.7324565321226877e+00 1.5458336054806869e+01 0 0 0
213 1 7.4014439946359492e+00 1.5697266138858408e+00 1.3603928699774670e+01 0 0 0
298 1 2.8198433376606449e+01 1.2644024075515848e+01 1.5427125909006055e+01 0 0 0
219 1 1.5525448994250741e+01 -5.3521982885907704e-02 1.5411163633412052e+01 0 0 0
215 1 1.0472305901485337e+01 1.3580976462244796e+00 1.7106503235869564e+01 0 0 0
218 1 1.2287666443118503e+01 2.9204437557682290e+00 1.5603872347663964e+01 0 0 0
221 1 1.3866276561156472e+01 1.4666618485031859e+00 1.3974665871997152e+01 0 0 0
223 1 1.7123193150121306e+01 1.0831082731906785e+00 1.6983863129778054e+01 0 0 0
352 1 9.1511325854313270e+00 9.1213527385899411e+00 1.8337279985721182e+01 0 0 0
300 1 2.9404807812029809e+01 1.4159842793350629e+01 1.6978595858837345e+01 0 0 0
226 1 1.8753839304840351e+01 2.7354003509401705e+00 1.5559419263519956e+01 0 0 0
229 1 2.0351174233959146e+01 1.2000182620939550e+00 1.3619445269648045e+01 0 0 0
231 1 2.3400056156075010e+01 1.5271947551441589e+00 1.6946161729911932e+01 0 0 0
814 1 2.1507714438121777e+01 1.5496283935989972e+01 1.8502757441814964e+01 0 0 0
234 1 2.4915716308972055e+01 3.2544108506151779e+00 1.5398626503764351e+01 0 0 0
237 1 2.6555202947618398e+01 1.5614125794850096e+00 1.4004499568455508e+01 0 0 0
217 1 1.2337926375145537e+01 -6.8282327865519937e-02 1.2393025205609481e+01 0 0 0
202 1 2.3851391600899030e-01 2.7648005149903851e+00 1.5958593544221561e+01 0 0 0
244 1 2.9601061039746925e+00 9.3103629991980927e+00 1.2649914031676763e+01 0 0 0
239 1 2.9652195550812948e+01 1.3208202352319578e+00 1.7148761941304652e+01 0 0 0
276 1 2.8144024307507468e+01 9.4176787592927589e+00 1.2714697884927340e+01 0 0 0
299 1 2.6375298436267325e+01 1.4032028680483361e+01 1.3956781101327040e+01 0 0 0
206 1 1.8578646386577731e+00 4.5843767949984322e+00 1.7327323344572360e+01 0 0 0
243 1 3.0158209225556551e+00 5.9105827057587215e+00 1.5394863681912042e+01 0 0 0
208 1 4.6307370070702900e+00 4.6055631154819032e+00 1.3837204017184547e+01 0 0 0
247 1 4.3561067703778384e+00 7.6524837775425691e+00 1.7188900679526004e+01 0 0 0
236 1 2.8401643416047889e+01 3.1504535502442188e+00 1.2692418425146265e+01 0 0 0
214 1 7.8535840703449278e+00 4.4884908027413024e+00 1.6934841175802553e+01 0 0 0
251 1 9.0035155018619211e+00 6.1276639475695527e+00 1.5148510291002159e+01 0 0 0
253 1 7.5802645695072997e+00 7.6772070014648577e+00 1.3597073779564258e+01 0 0 0
216 1 1.0665227134890332e+01 4.3131209198822109e+00 1.3903306624101232e+01 0 0 0
255 1 1.0685906143798061e+01 7.3116723264130421e+00 1.6967777368917581e+01 0 0 0
222 1 1.4026675963416100e+01 4.3169378388585082e+00 1.7035617357725211e+01 0 0 0
294 1 2.1933768333963439e+01 1.2290391326721048e+01 1.5353785676101996e+01 0 0 0
259 1 1.5514523334672294e+01 5.6547764550985882e+00 1.5466048015054465e+01 0 0 0
224 1 1.7039011808537115e+01 4.1249790797797097e+00 1.4055173671565242e+01 0 0 0
261 1 1.3741738478946328e+01 7.2545140757038329e+00 1.3848517418238520e+01 0 0 0
263 1 1.7399435109352485e+01 7.2679977199436117e+00 1.7007524974793057e+01 0 0 0
230 1 2.0400468268231592e+01 4.5900496275829221e+00 1.6826238615929558e+01 0 0 0
269 1 2.0275666532680184e+01 7.4979440833269813e+00 1.4309130718542944e+01 0 0 0
232 1 2.3286762911807614e+01 4.5307029745798300e+00 1.3902542339023581e+01 0 0 0
267 1 2.2056995443450219e+01 6.2307216437663007e+00 1.5560303138562704e+01 0 0 0
238 1 2.6415221733328430e+01 4.5654496055750577e+00 1.7480588447630598e+01 0 0 0
296 1 2.2968299468105631e+01 1.4353474745565691e+01 1.6815678113508220e+01 0 0 0
275 1 2.8328335624807405e+01 6.2976920722627847e+00 1.5537501574227109e+01 0 0 0
240 1 3.0150487045285029e+01 4.6090248331050994e+00 1.4113021941678271e+01 0 0 0
279 1 2.9650165970191146e+01 8.1810550597451979e+00 1.7196114258773779e+01 0 0 0
295 1 2.0105360455236937e+01 1.3865935098120831e+01 1.3714043264661319e+01 0 0 0
245 1 1.3522546144309480e+00 7.5746858373003976e+00 1.4083088092964786e+01 0 0 0
246 1 1.2344037883646788e+00 1.0843712164808082e+01 1.6908831659737231e+01 0 0 0
248 1 4.4868387770101110e+00 1.1000324420403997e+01 1.3907140823816512e+01 0 0 0
250 1 6.1447213867603248e+00 9.2089727598397708e+00 1.5183982117080507e+01 0 0 0
713 1 1.8656064542079964e+01 1.5258988183133463e+01 1.5258138897260810e+01 0 0 0
254 1 7.4151148866161085e+00 1.0749015536912470e+01 1.6958340006106447e+01 0 0 0
273 1 2.5213280767145950e+01 5.9347295356971541e+00 1.2612479962442499e+01 0 0 0
256 1 1.0803783698064525e+01 1.0713676304062686e+01 1.3782836179064303e+01 0 0 0
258 1 1.2009244951654937e+01 8.9601421903988641e+00 1.5442088483646460e+01 0 0 0
262 1 1.3956161804824253e+01 1.0302452895278451e+01 1.6935097952728103e+01 0 0 0
264 1 1.7118839641563991e+01 1.0951875453040236e+01 1.4076083355666373e+01 0 0 0
266 1 1.9014837664652294e+01 9.3487297631895512e+00 1.5713025924044468e+01 0 0 0
270 1 2.0083436469897947e+01 1.0934473238768151e+01 1.7340931860058170e+01 0 0 0
271 1 2.3438561992855202e+01 7.9853669484505510e+00 1.7140269516839048e+01 0 0 0
272 1 2.3712527579821796e+01 1.0752228745306246e+01 1.3712680315947610e+01 0 0 0
204 1 3.0389122543056355e+00 3.0899812353388518e+00 1.2423945953766861e+01 0 0 0
277 1 2.6896048414617447e+01 7.6093420359872841e+00 1.3981761900297727e+01 0 0 0
274 1 2.5483440751976293e+01 9.3053420712560460e+00 1.5491524509722007e+01 0 0 0
278 1 2.6496660745358653e+01 1.1260712815431054e+01 1.6820852678604890e+01 0 0 0
242 1 1.3734591640713845e-01 9.4787275998839231e+00 1.5205429646733917e+01 0 0 0
280 1 2.9582725421056317e+01 1.1309914544117701e+01 1.3866306453900814e+01 0 0 0
344 1 2.7273328957884058e+00 9.4609468411551649e+00 1.8500634118184848e+01 0 0 0
283 1 1.7101002344584555e+00 1.4214919837369283e+01 1.3999632871134565e+01 0 0 0
282 1 3.0687083402907280e+00 1.2627994346775024e+01 1.5655202878853101e+01 0 0 0
290 1 1.5253229651652957e+01 1.2327221000537270e+01 1.5194180273944134e+01 0 0 0
292 1 1.6745568071430515e+01 1.3907881022886412e+01 1.6881712907848133e+01 0 0 0
284 1 4.7225807108232214e+00 1.4144480470251461e+01 1.6956624642475990e+01 0 0 0
288 1 1.0849099507858428e+01 1.3608670722487958e+01 1.6790486322692047e+01 0 0 0
286 1 9.2031234664457102e+00 1.2186292085506079e+01 1.5233276151727482e+01 0 0 0
287 1 7.7185901306754667e+00 1.4070212213537252e+01 1.3760118999794514e+01 0 0 0
291 1 1.3788344594953546e+01 1.3840833966613067e+01 1.3776508525254597e+01 0 0 0
349 1 6.3537486699316297e+00 6.0928526198091388e+00 1.8585844769188572e+01 0 0 0
260 1 1.5324576477863859e+01 8.9487993407912381e+00 1.2575765683553319e+01 0 0 0
385 1 5.9777576410066038e+00 1.2432722627221487e+01 1.8573436364155782e+01 0 0 0
265 1 1.8650302071616515e+01 5.8591864891815328e+00 1.2420612793648317e+01 0 0 0
397 1 2.4690745870449266e+01 1.2656319257181083e+01 1.8089881100624080e+01 0 0 0
806 1 9.1922284785332753e+00 1.5398100200455518e+01 1.8562149380432064e+01 0 0 0
328 1 2.2097025015619888e+01 3.0459586244147490e+00 1.8416153927700467e+01 0 0 0
381 1 3.1050193270802932e+01 1.2563820312691611e+01 1.8538227006294374e+01 -1 0 0
357 1 1.2341409083515794e+01 5.7220314847191869e+00 1.8485974466162386e+01 0 0 0
360 1 1.5425590472579403e+01 8.7611080854006254e+00 1.8407937371282415e+01 0 0 0
333 1 2.4947035119207236e+01 7.2108524779210259e-04 1.8541524007505139e+01 0 0 0
301 1 2.6705822147771197e-01 2.3875738910974609e-01 1.8611964874273585e+01 0 0 0
389 1 1.2396473771215884e+01 1.1833888288704582e+01 1.8498422655396219e+01 0 0 0
714 1 2.1734727643469313e+01 1.5342636693921092e+01 1.2412726737867652e+01 0 0 0
268 1 2.2039569929237935e+01 9.0410131257197897e+00 1.2663255941340028e+01 0 0 0
289 1 1.2431037096097526e+01 1.2545241177101619e+01 1.2437121411967048e+01 0 0 0
305 1 1.2643553572933997e+00 1.4928576921359831e+00 2.0613856787454324e+01 0 0 0
302 1 -8.8253230346637734e-02 3.1522365123272840e+00 2.1812410903693085e+01 0 0 0
307 1 4.7191362799691019e+00 1.4585878474452572e+00 2.3900992803875212e+01 0 0 0
310 1 6.0663520101953550e+00 3.0318470775317921e+00 2.2082813277688487e+01 0 0 0
313 1 7.7427262498530496e+00 1.9266952531952524e+00 2.0162232686762486e+01 0 0 0
309 1 6.1698925983193726e+00 -1.3638011454199239e-02 1.9041497448627680e+01 0 0 0
341 1 1.7144430158943524e-01 6.3265123564541472e+00 1.8764653547381535e+01 0 0 0
400 1 2.9310907818980795e+01 1.4177482317813139e+01 2.3370579151621101e+01 0 0 0
315 1 1.0919360562264922e+01 1.0976583392132058e+00 2.3255523402647093e+01 0 0 0
318 1 1.2308951324933563e+01 2.8736089061950976e+00 2.1776308839975034e+01 0 0 0
321 1 1.3679652600984808e+01 1.3406787044069208e+00 1.9947420235143081e+01 0 0 0
323 1 1.7077823378446251e+01 1.3402283409423155e+00 2.3313942469731646e+01 0 0 0
326 1 1.8852020946745235e+01 2.7447013046948578e+00 2.1399434136174580e+01 0 0 0
329 1 2.0660073951194203e+01 1.2130627530098173e+00 1.9748508005526432e+01 0 0 0
331 1 2.3050856054443393e+01 1.3238798344302041e+00 2.3518503685998184e+01 0 0 0
376 1 2.7876924721988853e+01 9.5525153509615812e+00 1.8648210525766618e+01 0 0 0
334 1 2.4975850026309931e+01 2.7348270783888631e+00 2.2042887277519853e+01 0 0 0
337 1 2.6481432892288627e+01 1.2985399083056475e+00 2.0276687999834163e+01 0 0 0
398 1 2.7733712785327860e+01 1.2752841297553678e+01 2.1633150815813803e+01 0 0 0
339 1 2.9644729953315821e+01 1.8153858106593697e+00 2.3385592325585620e+01 0 0 0
473 1 2.4523455442090096e+01 5.9810476794034200e+00 2.4852639959956015e+01 0 0 0
306 1 1.2808634303609643e+00 4.7850899721387856e+00 2.3696811587490007e+01 0 0 0
343 1 2.8471231482870540e+00 6.0731470405674708e+00 2.1852506675216230e+01 0 0 0
345 1 1.3918435049568374e+00 8.1686340740087040e+00 2.0288362751012567e+01 0 0 0
465 1 1.8637246889072262e+01 6.0453841218725053e+00 2.4473281148193546e+01 0 0 0
308 1 4.6758858534687038e+00 4.6182073172577986e+00 2.0095093411421210e+01 0 0 0
347 1 4.6333779655779477e+00 7.6287589065451158e+00 2.3699027153574409e+01 0 0 0
311 1 9.3345336751936312e+00 5.3202494959143032e-02 2.1497440576464317e+01 0 0 0
314 1 7.7468913366466863e+00 4.5520664151494836e+00 2.3641043157571978e+01 0 0 0
351 1 9.3142524497624173e+00 5.9030383210463295e+00 2.1690430421577286e+01 0 0 0
303 1 2.9283602639779578e+00 8.8336827752003300e-03 2.2258794448845109e+01 0 0 0
316 1 1.0898240542839229e+01 4.6829707023190226e+00 2.0257231571769925e+01 0 0 0
355 1 1.0625325072995189e+01 7.6431825735209076e+00 2.3333087152753485e+01 0 0 0
481 1 3.1146564273154880e+01 1.2568004714903072e+01 2.4880736094419923e+01 -1 0 0
322 1 1.3844751790614509e+01 4.3674900783585056e+00 2.3369256401385371e+01 0 0 0
359 1 1.5440243489629184e+01 6.0080770719726404e+00 2.1633347946989030e+01 0 0 0
324 1 1.6962176580169281e+01 4.6317038470378851e+00 2.0278017421569974e+01 0 0 0
361 1 1.3791857761483149e+01 7.3167559315073323e+00 2.0156585272889714e+01 0 0 0
363 1 1.6788773086599655e+01 7.7928953770342106e+00 2.3044177336418272e+01 0 0 0
330 1 2.0135940199470216e+01 4.3232890553798020e+00 2.3265238756833686e+01 0 0 0
336 1 2.8094065169413117e+01 2.9994623461722711e+00 1.9035042423582418e+01 0 0 0
332 1 2.3612814630775670e+01 4.5345000366848973e+00 2.0553836515869691e+01 0 0 0
367 1 2.1680533300158874e+01 5.9403085750417119e+00 2.1968282088669120e+01 0 0 0
338 1 2.6320021304769728e+01 4.6027599286643435e+00 2.3374550202812035e+01 0 0 0
377 1 2.6327416522074987e+01 8.0378346265949219e+00 2.0115580651701556e+01 0 0 0
375 1 2.7795553319236650e+01 6.2082430855957655e+00 2.2000763887420316e+01 0 0 0
396 1 2.3170795488972399e+01 1.4126081940727332e+01 2.2986201449152933e+01 0 0 0
340 1 2.9789555361773367e+01 4.9738353352959201e+00 2.0406843318112063e+01 0 0 0
379 1 2.9463642087978148e+01 8.0073049550529660e+00 2.3326517197142966e+01 0 0 0
346 1 1.4752464861566850e+00 1.0992175251942189e+01 2.3579616196810658e+01 0 0 0
342 1 3.1138166097218647e+01 9.5610287269324754e+00 2.1856758317349911e+01 -1 0 0
394 1 2.1747895932912034e+01 1.2428535529581509e+01 2.1552705964988721e+01 0 0 0
348 1 4.2846468380480474e+00 1.1005995308359694e+01 2.0224371733579872e+01 0 0 0
350 1 5.5924705247203432e+00 8.9363244924409919e+00 2.1720267249919264e+01 0 0 0
353 1 7.6286388971308385e+00 7.7407829901187659e+00 2.0080674442383579e+01 0 0 0
354 1 7.2515439674151558e+00 1.0616872892798133e+01 2.3407315698825034e+01 0 0 0
460 1 1.5076310744395037e+01 9.1339842002207572e+00 2.4846825749581807e+01 0 0 0
356 1 1.0736029200783648e+01 1.0502410478715088e+01 2.0083804768572143e+01 0 0 0
358 1 1.2348950185880408e+01 8.9172821447639823e+00 2.1625189464398044e+01 0 0 0
362 1 1.3579174375910128e+01 1.0938107789824583e+01 2.3132694727495132e+01 0 0 0
364 1 1.6718201662630431e+01 1.0662008920990313e+01 1.9958977481976433e+01 0 0 0
373 1 2.4736566956643369e+01 6.2465205559766295e+00 1.8891973583081999e+01 0 0 0
320 1 1.5678897676827413e+01 2.7933178578765405e+00 1.8722390588102165e+01 0 0 0
369 1 2.0189865171711979e+01 7.5452861041183912e+00 2.0211860250802406e+01 0 0 0
366 1 1.8608945024803056e+01 9.2490598719627446e+00 2.1757925841085221e+01 0 0 0
370 1 2.0143238027300931e+01 1.1259655538028104e+01 2.3143279212997840e+01 0 0 0
371 1 2.3107687021846171e+01 7.7727980347611387e+00 2.2948508232111866e+01 0 0 0
372 1 2.3551740253970930e+01 1.1016680302368870e+01 1.9834857186465594e+01 0 0 0
374 1 2.4828114005348322e+01 9.6378694249446770e+00 2.1585138950707108e+01 0 0 0