ITEM: TIMESTEP
0
ITEM: NUMBER OF ATOMS
1000
ITEM: BOX BOUNDS pp pp pp
-1.0209654440629734e-01 3.1124596544405865e+01
-1.0209654440629734e-01 3.1124596544405865e+01
-1.0209654440629734e-01 3.1124596544405865e+01
ITEM: ATOMS id type x y z vx vy vz fx fy fz c_2[1] c_2[2] c_2[3] c_2[4] c_2[5] 
5 1 1.42317 1.73229 1.15958 -0.00115323 0.00100311 -0.00364766 -4.2403 0.297856 3.76887 0 0 0 0 0 
3 1 3.0536 0.172658 2.69613 -0.00129591 -0.00155251 0.00589136 4.28385 -3.06774 -2.37666 0 0 0 0 0 
101 1 0.279144 0.0952312 5.87265 0.00515779 0.000993509 0.00206142 -4.792 0.853545 6.6646 0 0 0 0 0 
104 1 2.90382 2.97758 5.98044 0.00102599 0.00124046 0.000509223 6.86084 -0.403804 -1.28779 0 0 0 0 0 
7 1 4.74814 1.47936 4.34126 -0.00214093 -0.000985355 0.00441221 -2.94711 2.88744 1.1592 0 0 0 0 0 
10 1 6.34229 3.1164 2.90965 0.000747244 0.00248242 0.00152896 -5.44489 0.506574 0.145379 0 0 0 0 0 
13 1 7.66333 1.59997 1.24879 0.0039581 0.00161312 -0.000762633 0.39383 -4.2501 3.8418 0 0 0 0 0 
11 1 9.04382 -0.0826393 2.91522 -0.00288715 0.00389139 -0.00349648 -4.38428 1.18027 6.65244 0 0 0 0 0 
15 1 10.3719 1.36697 4.79656 0.00344325 0.000244393 0.000641928 3.47991 -0.448837 1.18323 0 0 0 0 0 
18 1 12.1569 2.63539 3.18542 -0.00544866 -0.000459172 0.00156604 -0.0306731 9.10738 1.04947 0 0 0 0 0 
21 1 14.0107 1.61382 1.63991 5.30364e-05 -0.00300927 7.44127e-05 -1.7545 -4.69787 -1.76699 0 0 0 0 0 
23 1 16.9243 1.29787 4.71147 -0.00148881 0.00175133 0.00147004 1.91098 -1.4694 0.3581 0 0 0 0 0 
26 1 18.342 2.85965 3.15926 0.00193552 0.00599971 0.0032627 7.53499 -3.1283 -2.48584 0 0 0 0 0 
29 1 20.2337 1.27879 1.38155 -0.00257808 -0.000523934 0.00576083 -3.63695 5.30054 -1.52933 0 0 0 0 0 
31 1 23.1087 1.37192 4.32998 0.0037529 -0.00191942 -0.00487864 4.42048 -0.774316 -0.232268 0 0 0 0 0 
128 1 21.5568 2.73262 5.96001 0.000882588 0.00546071 -0.00304858 1.99886 4.88027 1.43017 0 0 0 0 0 
34 1 24.7114 3.1321 2.81748 0.00301441 0.00211367 0.00443277 2.89122 -11.1953 0.723609 0 0 0 0 0 
37 1 26.3984 1.35391 1.29527 -0.00433789 -0.000450596 -0.00216278 -1.12262 6.04493 -1.68848 0 0 0 0 0 
133 1 24.7962 -0.0596612 6.08428 0.00271271 0.00327823 0.00516422 -3.86432 -4.19197 -4.00188 0 0 0 0 0 
35 1 28.095 0.0431318 2.75767 -0.000385142 -0.00113045 0.00406766 0.24271 -4.92738 1.96947 0 0 0 0 0 
2 1 30.9389 3.29246 3.04019 0.000337967 0.00363405 0.00233671 4.80729 -3.94335 -3.35436 0 0 0 0 0 
39 1 29.5229 1.45812 4.50865 0.00362148 -0.00358914 0.00384172 2.13631 3.47284 -0.602535 0 0 0 0 0 
136 1 27.9479 3.29931 5.81951 0.00117879 0.00185199 -0.000798534 3.24145 -3.80698 5.40435 0 0 0 0 0 
141 1 -0.0550782 6.08459 5.95384 0.00524429 -0.00412034 -0.00107985 2.08772 2.34996 2.11096 0 0 0 0 0 
6 1 1.63003 4.66971 4.46937 -0.000686542 -0.000418074 -0.00036345 -7.01423 -1.5226 -0.261938 0 0 0 0 0 
43 1 2.808 6.31968 2.90303 0.00229013 -0.00046979 -0.000215844 4.27328 0.676103 -2.04845 0 0 0 0 0 
8 1 4.4793 4.57705 1.41695 -0.0055969 0.00407909 -0.00732533 -1.96292 0.302118 -1.51073 0 0 0 0 0 
49 1 6.0837 6.15681 -0.0408209 0.00236266 -0.00882267 0.00103665 0.492515 -4.36995 -4.46215 0 0 0 0 0 
149 1 6.14317 6.53514 5.84062 -0.00333486 0.00252421 0.00140229 -6.95027 -4.58168 -1.40318 0 0 0 0 0 
14 1 7.6669 4.62912 4.64067 -0.00389615 -0.00553197 0.00222247 -0.997405 3.86215 -3.28752 0 0 0 0 0 
51 1 9.14565 6.03476 2.80694 0.00121524 -0.000421473 -0.00200263 -0.348937 3.23336 3.5222 0 0 0 0 0 
16 1 10.7422 4.44964 1.37735 0.00355506 -0.00358201 -0.00770758 4.05512 0.556525 4.27313 0 0 0 0 0 
55 1 10.7239 7.47856 4.70596 -0.00261081 -0.00325614 0.00668737 -3.15012 -5.01601 1.99712 0 0 0 0 0 
57 1 12.2893 6.24627 -0.000343801 -0.00236571 0.00350485 -0.000512364 0.464782 1.601 1.48208 0 0 0 0 0 
22 1 13.9055 4.32732 4.85266 0.00421372 0.000784018 0.00374753 -5.98119 -4.38569 0.833571 0 0 0 0 0 
59 1 15.4089 5.61794 3.31821 0.00437075 0.00166914 -0.00570663 -0.598633 5.36822 -6.08758 0 0 0 0 0 
24 1 16.9473 4.28292 1.57344 0.00488365 -0.0015155 -0.000116026 -1.38237 3.535 -1.79428 0 0 0 0 0 
63 1 17.0216 7.2 4.55395 0.00387468 0.000806082 0.00101749 -1.1573 5.25415 4.82062 0 0 0 0 0 
61 1 13.8089 7.62186 2.05222 -0.000695614 -0.000551242 0.00326167 2.05018 -1.94404 -6.88948 0 0 0 0 0 
65 1 18.785 5.94543 0.307864 -0.000807764 -0.00442563 -0.00153274 -4.20582 -4.07732 -7.73191 0 0 0 0 0 
30 1 20.0332 4.50226 4.54507 0.00363402 -0.00149929 0.000693522 2.37065 -1.1768 -0.982466 0 0 0 0 0 
32 1 23.5152 4.7941 1.49665 0.00504668 -0.00316385 0.00232989 -6.82445 1.57519 -5.96288 0 0 0 0 0 
67 1 21.8223 6.1674 3.03107 -0.00188246 0.00320952 -0.00128251 -3.97745 0.234462 -1.38713 0 0 0 0 0 
38 1 26.4277 4.47315 4.05657 0.0019285 0.00436766 0.00187064 2.04361 7.50092 5.82824 0 0 0 0 0 
73 1 24.803 6.5293 -0.0814526 0.000382019 0.000259729 0.000585286 3.37499 -2.39651 0.822761 0 0 0 0 0 
173 1 25.0977 6.18399 5.87455 -0.0034308 -0.00215625 -0.00160548 -2.17341 -4.30428 0.896429 0 0 0 0 0 
75 1 28.0862 6.21437 2.82412 0.000176704 0.000289554 -0.00117646 -3.85781 2.44992 0.0130739 0 0 0 0 0 
40 1 29.4844 4.67851 1.26755 -0.00315047 -0.000106578 0.00427072 -1.15116 -0.536442 -2.52625 0 0 0 0 0 
79 1 29.5708 7.65896 4.54411 -0.00133687 -0.0022464 0.00622645 -3.31765 4.1325 1.63852 0 0 0 0 0 
45 1 1.08283 8.03017 1.714 0.00130601 0.00636649 -0.00178297 1.67728 0.279966 -4.1416 0 0 0 0 0 
46 1 1.38331 11.0096 4.58828 0.00359574 -0.000863455 -0.00610747 5.28834 3.11858 1.65085 0 0 0 0 0 
44 1 2.90794 9.40189 -0.0503957 0.000934084 0.00427286 -0.00330154 -3.25494 2.82968 4.77583 0 0 0 0 0 
47 1 4.31648 8.06929 4.31505 -0.000945083 0.00813088 -0.00125311 -0.580824 -8.99705 4.08907 0 0 0 0 0 
48 1 4.64805 11.1492 1.44638 -0.00257754 0.00325055 -0.00586027 -6.24747 -4.60467 -1.76982 0 0 0 0 0 
50 1 5.90777 9.36758 2.96809 -0.00190284 0.00174842 0.00339901 6.93648 4.00948 -3.4482 0 0 0 0 0 
52 1 8.83343 9.59016 0.0304701 0.00247177 0.0117035 -0.00661598 5.91738 -0.211379 -1.1259 0 0 0 0 0 
53 1 7.46388 7.80411 1.33027 0.00410386 -0.00456503 0.0017141 1.45466 -0.988252 6.16187 0 0 0 0 0 
54 1 7.71429 10.7118 4.58343 -0.00341732 0.0015242 0.00369617 -6.94814 -4.79096 5.11382 0 0 0 0 0 
56 1 10.6625 10.7988 1.72002 -0.00545144 0.000900917 -0.00243184 -3.59967 -2.25261 -1.87731 0 0 0 0 0 
58 1 11.9804 9.09314 3.29526 -0.00126622 0.00051579 0.00599118 7.59279 4.70666 -1.30597 0 0 0 0 0 
62 1 13.867 10.7084 4.67784 -0.00501023 -0.00416054 0.00225081 -3.64481 -2.34563 3.28798 0 0 0 0 0 
64 1 16.9252 10.8468 2.11752 -0.00514001 0.0045976 -0.006541 -0.269857 -0.697063 -5.96413 0 0 0 0 0 
60 1 15.4636 9.39656 0.387113 0.000677931 -0.000670668 0.00133074 -3.06492 -2.25858 -1.42613 0 0 0 0 0 
160 1 15.5713 9.12639 6.13337 -0.00435046 0.000410407 0.000733197 -5.68847 -7.03951 -4.45798 0 0 0 0 0 
69 1 20.1698 7.76964 1.33036 0.0042194 -0.00362236 0.00577436 4.30942 3.67868 6.65595 0 0 0 0 0 
66 1 18.4141 8.9989 3.14768 0.00249418 -0.000695266 -0.00174793 4.90879 -0.954531 -0.440226 0 0 0 0 0 
70 1 19.9815 10.7118 4.58826 -0.0025705 0.00414098 -0.00185598 0.336117 0.271729 -1.53684 0 0 0 0 0 
71 1 23.47 7.74503 4.39086 -0.0025762 0.00136991 0.00189623 -4.46339 1.04638 5.36401 0 0 0 0 0 
72 1 23.2228 11.1514 1.40581 -0.00416908 -0.000223348 -0.00439148 -0.477822 0.430611 1.72828 0 0 0 0 0 
168 1 21.768 9.34487 6.06393 -0.00435531 -0.00492386 0.000416666 1.07178 -1.70721 -4.1833 0 0 0 0 0 
77 1 26.4195 8.08184 1.57122 -2.5354e-05 0.000786458 0.00230525 -1.13376 -3.02764 -1.75039 0 0 0 0 0 
78 1 26.406 11.213 4.77714 0.00341192 -0.00447866 -2.65632e-05 -6.24833 -1.18286 -7.28388 0 0 0 0 0 
74 1 24.6833 9.54624 3.015 -0.00279731 0.0026734 -7.57603e-05 6.15457 3.95762 0.877924 0 0 0 0 0 
42 1 30.8665 9.72669 3.37985 0.00267998 -0.00301751 0.00295427 -0.827147 -7.33129 -4.66618 0 0 0 0 0 
80 1 29.4531 11.0738 1.67299 -0.0037965 0.000505869 0.00343648 -2.7364 3.04035 -2.64673 0 0 0 0 0 
176 1 27.8527 9.57145 6.05521 0.000113292 0.00294565 0.00245118 3.83417 -9.82139 -1.02846 0 0 0 0 0 
76 1 27.8146 9.64472 -0.034034 -0.00377881 0.00144228 -0.000256839 5.35205 -3.3939 2.34714 0 0 0 0 0 
82 1 2.72346 12.6758 2.57346 0.000172564 5.35858e-05 0.00192052 -1.04815 -2.1095 5.43304 0 0 0 0 0 
83 1 1.11214 14.4233 1.23876 0.00193296 0.000884606 -0.00239496 2.8204 -4.21934 -0.820574 0 0 0 0 0 
84 1 4.14322 13.87 4.52706 0.00179145 0.000125609 0.00120021 5.98588 2.00091 -3.35044 0 0 0 0 0 
505 1 6.26737 15.4613 3.16638 0.00102383 -0.000504446 0.00150887 -5.99657 -0.0200416 1.73005 0 0 0 0 0 
185 1 5.74757 12.2081 5.8918 0.0047151 0.00123295 -0.000129275 5.38455 3.50668 -0.0455623 0 0 0 0 0 
86 1 9.26612 12.1542 3.41591 -0.000420097 0.000580271 -0.00421498 1.83238 8.75695 -7.20239 0 0 0 0 0 
87 1 7.77763 13.8725 1.72789 0.0058499 0.00327227 -0.00237394 0.597603 -2.50892 -2.01515 0 0 0 0 0 
88 1 10.8509 13.8935 4.67598 -0.0021562 -0.00514558 -0.00297394 0.676274 -0.178257 0.659255 0 0 0 0 0 
509 1 12.5236 15.3686 3.16928 0.00638152 -0.00141114 0.00382292 -4.55816 2.63405 -0.16105 0 0 0 0 0 
89 1 11.9256 12.4537 0.108787 0.0022066 -0.00391103 0.0013588 8.5323 0.00705158 1.38723 0 0 0 0 0 
92 1 16.7438 13.986 4.87575 -0.00246799 0.00103619 0.00438056 1.21929 6.87364 -10.2019 0 0 0 0 0 
91 1 13.9084 13.7178 1.67078 0.00113514 -0.000241057 -0.000153023 -0.579932 1.56366 -3.08746 0 0 0 0 0 
90 1 15.3019 12.3866 3.4238 0.00101754 0.000728906 0.00396537 -0.467453 0.149117 -2.16764 0 0 0 0 0 
510 1 15.6915 15.2744 0.232306 -0.00648426 0.000745141 0.00177274 -5.62639 6.61911 -1.50867 0 0 0 0 0 
93 1 18.3768 12.2018 0.263421 -0.000371965 0.00046048 -0.00324006 1.38911 2.01168 -3.68405 0 0 0 0 0 
95 1 19.9081 13.8818 1.59252 0.000475835 0.00178616 0.000905467 4.55218 1.49859 -1.60527 0 0 0 0 0 
193 1 18.2421 12.3873 5.81236 -0.00296733 0.00213714 0.000646489 8.16488 -6.64677 7.11937 0 0 0 0 0 
96 1 22.9821 14.274 4.60563 0.00146091 -0.0023467 -0.000925153 1.37795 -0.104671 -1.55354 0 0 0 0 0 
94 1 21.5769 12.4517 3.25085 -0.00603437 0.00173498 -0.00101192 -0.6186 0.24393 -4.91534 0 0 0 0 0 
99 1 25.9782 14.0816 1.51464 -0.000685049 0.00172492 -0.000768848 4.1858 0.6862 1.87086 0 0 0 0 0 
197 1 24.7097 12.8714 5.96186 0.000184999 -7.7959e-05 -0.00408798 -2.43031 -4.25977 2.85413 0 0 0 0 0 
501 1 30.6166 15.4839 2.92123 -0.00517122 0.000112303 -0.00046882 4.22206 2.22489 4.19905 0 0 0 0 0 
100 1 29.3035 14.0951 4.79523 0.00366332 -0.00104639 0.00369161 1.28137 0.189697 -2.10474 0 0 0 0 0 
98 1 27.8159 12.7174 3.14349 -0.00150918 0.00358444 0.00266068 -0.783438 -1.8906 -2.83676 0 0 0 0 0 
81 1 31.0173 12.5124 -0.0491476 0.00121596 0.00291997 -0.00417376 -1.57464 -1.11996 -2.76004 0 0 0 0 0 
518 1 27.8666 15.503 0.197831 0.00523819 0.00123823 0.000847187 0.255006 -0.429928 -0.0344262 0 0 0 0 0 
105 1 1.7045 1.5299 7.81145 -0.00128675 4.80997e-05 -0.00429258 -7.59366 2.39986 -6.10082 0 0 0 0 0 
103 1 2.93254 0.128886 9.38203 -0.00231587 -0.00216049 0.00082377 1.2168 -8.29055 4.08117 0 0 0 0 0 
102 1 -0.0157019 2.94752 9.25716 0.00312527 -0.0044657 0.00180408 -2.22544 -0.185748 -1.43379 0 0 0 0 0 
107 1 4.5294 1.73332 10.8211 -0.000733245 -0.0091439 0.00120118 0.586318 0.0788503 4.34405 0 0 0 0 0 
110 1 5.96078 3.33684 9.0419 -0.00238918 -0.00281455 -0.00272517 0.534991 2.61523 2.36804 0 0 0 0 0 
209 1 6.30954 -0.0552697 12.2171 0.00435515 0.00135422 -0.00216551 -12.61 -0.184248 4.24249 0 0 0 0 0 
111 1 9.04883 0.0562852 9.67593 0.00146082 -0.00210189 0.00216105 2.30222 -5.47435 -4.65074 0 0 0 0 0 
113 1 7.71868 1.55158 7.93745 -0.00607796 0.00011452 -0.000995926 -5.7299 -0.309809 -5.1237 0 0 0 0 0 
112 1 9.04531 3.26786 6.34971 0.000732039 0.00333313 2.25999e-05 6.15321 -4.38957 1.66882 0 0 0 0 0 
115 1 10.6683 1.10639 11.392 -0.00226893 0.000367122 -0.00348325 -0.301002 8.34016 -8.84424 0 0 0 0 0 
118 1 12.1585 2.79984 9.48125 0.00574049 -0.00185446 0.0021148 5.27075 -3.45929 8.46925 0 0 0 0 0 
117 1 12.3094 -0.063931 6.40671 -0.00458501 0.00144556 0.00666513 -4.17112 -1.30357 -2.22164 0 0 0 0 0 
121 1 13.7985 1.38309 7.99644 0.00637252 0.00209418 0.00368846 0.950164 0.126755 -3.16118 0 0 0 0 0 
123 1 16.9906 1.42213 10.7309 -0.000151658 -0.0013153 -0.00533555 -2.30802 0.629322 1.61695 0 0 0 0 0 
220 1 15.3866 2.98254 12.3315 0.00190239 0.00130002 0.00403387 0.405621 -5.69739 2.77033 0 0 0 0 0 
120 1 15.4519 2.7422 6.32706 -0.000412825 2.14713e-05 -0.00214553 0.046286 3.4096 4.23039 0 0 0 0 0 
126 1 18.5425 3.10741 9.4186 0.00355709 -0.00875475 -0.00415157 9.69102 -4.80516 1.60795 0 0 0 0 0 
129 1 20.2075 1.35881 7.77592 -0.000466882 -0.000625502 -6.67663e-05 -0.919446 8.15569 3.63779 0 0 0 0 0 
125 1 18.8822 0.0333787 6.20028 0.00397153 -0.00371439 0.00485688 -5.66234 -8.29124 -4.44292 0 0 0 0 0 
131 1 23.4523 1.26503 10.8365 0.00471787 -0.000253752 -0.000391986 -4.87644 5.12735 -6.48638 0 0 0 0 0 
228 1 21.7003 2.84361 12.2228 0.00259945 0.00461537 -0.00599279 -0.0979806 -1.20491 0.224971 0 0 0 0 0 
134 1 24.7867 2.99403 9.19581 -0.00697383 -0.005601 -0.00180359 5.35471 -1.62919 -0.495057 0 0 0 0 0 
137 1 26.3292 1.54305 7.30005 0.000601117 0.00154699 -0.00199513 5.3368 2.79743 7.24869 0 0 0 0 0 
135 1 28.1933 -0.0880358 8.95648 -0.00410557 -0.00101691 0.000948641 -8.21407 3.57273 -2.45575 0 0 0 0 0 
139 1 29.4571 1.37633 10.5743 -0.0036156 0.00113989 -0.00161662 3.99399 2.61609 -2.20165 0 0 0 0 0 
236 1 28.2474 2.91103 12.134 9.14878e-06 -0.0023129 -0.00070435 -4.54937 5.51676 4.45646 0 0 0 0 0 
201 1 30.6528 -0.00480331 12.3228 -0.000993489 0.00151502 -0.004013 13.9431 1.35108 0.945369 0 0 0 0 0 
106 1 1.37234 4.32355 10.9681 0.00386466 0.00307402 0.00161778 3.81416 1.26895 2.52913 0 0 0 0 0 
143 1 2.76457 6.05139 9.41312 0.000899699 -0.0015019 -0.00146964 4.95469 1.53481 4.31431 0 0 0 0 0 
145 1 1.31768 7.4624 7.88586 0.00416834 -0.00851217 0.00631732 -1.87007 3.65033 -6.18641 0 0 0 0 0 
241 1 -0.0807596 6.02383 12.3381 0.000207438 0.000147887 -0.00366324 3.36502 2.11806 3.46696 0 0 0 0 0 
249 1 6.16524 6.68885 12.2609 -0.00156642 -0.000509512 -0.000470411 5.988 -6.58213 -2.72857 0 0 0 0 0 
108 1 4.09063 5.03968 7.31028 -0.00324206 -0.000516569 -0.00234439 8.26318 -4.11002 1.37947 0 0 0 0 0 
114 1 7.96583 4.80266 10.7559 -0.00754931 0.00306386 -0.00385995 -6.11021 -2.12101 1.88657 0 0 0 0 0 
151 1 9.63086 6.21625 9.27741 -0.00210334 -0.000905885 0.000352869 -2.04137 1.81473 -3.23249 0 0 0 0 0 
153 1 7.51127 7.6752 7.64928 -0.000128045 0.00309568 -0.00159894 8.92754 1.30412 2.13652 0 0 0 0 0 
116 1 11.1929 4.34828 7.85456 0.00213378 0.00878493 -0.000567719 -13.5206 3.37503 -1.32818 0 0 0 0 0 
257 1 12.0814 6.07631 12.1783 0.00950007 -0.000142061 -0.00369415 3.00602 0.00797954 7.79433 0 0 0 0 0 
157 1 12.3758 5.97313 6.4204 0.00167121 -0.000862058 -0.000814864 5.19923 5.4985 -4.9616 0 0 0 0 0 
122 1 13.8818 4.5196 10.9291 -0.000772376 -0.00106291 -0.00174749 -4.68299 -0.742595 -1.55786 0 0 0 0 0 
159 1 15.491 6.14667 9.65144 -0.00517635 1.88771e-05 0.000287284 -5.89156 -5.24217 -12.3713 0 0 0 0 0 
124 1 17.0447 4.40896 8.02907 -0.00428747 0.000141676 0.00199535 -6.64687 5.32438 -6.58507 0 0 0 0 0 
163 1 16.9468 7.62506 10.7829 0.0055329 -9.77526e-05 -0.00218984 8.13081 6.40213 8.48453 0 0 0 0 0 
165 1 18.5533 5.88897 6.24266 0.0018587 -0.00622836 -0.000480294 1.03675 1.47442 1.70294 0 0 0 0 0 
130 1 20.4502 4.80769 10.784 0.00378102 0.0039279 0.00500313 -7.29756 -8.80886 2.75439 0 0 0 0 0 
265 1 18.5685 5.97588 12.3313 0.00317519 0.00120302 -0.000277466 2.17222 6.4942 0.186978 0 0 0 0 0 
132 1 23.3473 4.33906 7.44863 0.00118626 -0.00591196 0.00382316 -1.07969 3.45227 -3.04506 0 0 0 0 0 
167 1 21.7525 5.93718 8.98969 -0.00289506 -0.000694932 0.000509692 4.20746 7.10957 -4.29982 0 0 0 0 0 
171 1 23.3914 7.66472 10.4298 -0.00759057 -0.00365694 -0.000208983 -2.10633 1.32327 -0.78779 0 0 0 0 0 
273 1 24.9551 6.03074 11.8602 0.00379023 -0.00381164 0.00229896 -3.00651 0.537028 7.05253 0 0 0 0 0 
138 1 26.6863 4.58712 10.614 -0.00449271 -0.000339785 -0.00272036 -3.25009 -5.91427 -0.890373 0 0 0 0 0 
177 1 26.6083 7.69949 7.57661 0.00409812 0.00373025 0.00105628 -4.97529 3.29678 -3.13369 0 0 0 0 0 
175 1 28.0002 6.19433 9.15841 0.00267664 -0.00650393 0.00350632 5.71583 -0.382205 -1.19806 0 0 0 0 0 
140 1 29.826 4.77491 7.73647 0.000579094 -0.00128486 -0.000647577 -5.80095 -5.41376 -2.29143 0 0 0 0 0 
179 1 29.745 7.48047 10.6902 0.00488404 -0.00562211 -0.000714725 -2.94092 8.01118 0.295197 0 0 0 0 0 
146 1 1.36836 10.9028 10.7612 0.00041308 0.000680903 -0.00246076 4.69146 1.37325 -2.90588 0 0 0 0 0 
142 1 -0.0189297 9.36629 9.11233 -0.00133047 0.000788927 0.00156809 -3.75391 -3.74987 2.5564 0 0 0 0 0 
244 1 3.03235 9.43709 12.3567 -0.00146457 -0.00110045 -0.00336574 -3.50646 1.2107 5.40293 0 0 0 0 0 
144 1 2.78441 9.06722 6.16827 -0.000717231 -0.00281066 0.000770065 -1.63465 5.92643 0.165131 0 0 0 0 0 
147 1 4.4566 7.96439 10.8619 -0.00414218 -0.0021646 0.00176468 -1.78151 -3.44959 -7.81303 0 0 0 0 0 
148 1 4.3307 10.8686 7.50999 -0.000801049 0.00681671 -0.0019486 -2.46253 -3.01584 0.885631 0 0 0 0 0 
150 1 5.90389 9.29619 8.91486 -0.000676914 0.00542041 -0.00723322 -0.186477 1.85188 6.2947 0 0 0 0 0 
152 1 9.37969 9.22792 6.18693 0.00124801 0.00467977 -0.00480061 -5.15674 -2.75915 -0.655241 0 0 0 0 0 
154 1 7.38806 10.9694 10.5811 0.00479254 0.00274134 -0.00295068 3.68665 -2.67299 0.704906 0 0 0 0 0 
252 1 9.29784 9.54272 12.2466 -0.00134971 -0.00201171 0.00133091 -5.72452 -0.444785 -2.10776 0 0 0 0 0 
155 1 10.9754 7.99411 10.8913 -0.000189447 0.00140885 0.00177428 -0.309334 3.49579 -6.08277 0 0 0 0 0 
156 1 10.9395 10.8488 7.51736 -0.0042179 0.00189234 0.00688024 -3.68124 4.76861 2.6782 0 0 0 0 0 
158 1 12.5471 9.86487 9.25821 -0.00148291 0.000656755 0.000921828 -1.61036 -12.4977 0.77828 0 0 0 0 0 
161 1 13.9246 7.78421 7.91024 0.000222996 0.00126479 -0.00283743 1.00793 -0.792417 0.475636 0 0 0 0 0 
162 1 14.2055 11.0084 10.7863 -0.0019975 -0.00616149 0.00134822 -0.777497 0.278819 4.89791 0 0 0 0 0 
164 1 17.0352 10.6139 7.3975 -0.0009005 -0.0018017 0.0048004 5.60663 4.10251 7.26616 0 0 0 0 0 
169 1 20.2276 7.75642 7.48086 0.00062061 0.00143387 0.00100009 -1.99234 -4.31204 4.24103 0 0 0 0 0 
166 1 18.6375 9.17674 9.26175 0.00429482 -0.00158819 -0.000592577 -2.35542 -1.03657 -4.9079 0 0 0 0 0 
170 1 20.1208 10.8414 10.6369 0.00155901 -0.00165817 0.00407989 0.75499 3.09719 2.13426 0 0 0 0 0 
172 1 23.1679 11.1376 7.40444 -0.001025 0.00423778 0.00179566 3.10679 -1.82791 0.293461 0 0 0 0 0 
268 1 21.8508 9.35269 12.0781 0.00157396 0.00178448 -0.00134234 -1.64318 -3.45716 2.65767 0 0 0 0 0 
178 1 26.6168 10.6839 10.4303 0.00206401 -0.0047637 -0.00724364 -4.24775 -0.136606 4.15393 0 0 0 0 0 
174 1 24.7877 9.39716 8.82605 0.0028369 -0.00385485 -0.000503607 1.93116 -1.62808 1.68097 0 0 0 0 0 
180 1 29.535 10.7516 7.50637 -0.00480397 -0.000251268 0.00479695 3.22559 6.58445 3.742 0 0 0 0 0 
276 1 28.0807 9.30817 12.2827 -0.00201507 0.00128463 -0.00432349 2.21123 -3.23402 -1.63715 0 0 0 0 0 
182 1 2.99468 12.5827 9.07554 0.00310003 -0.00503634 -0.00197293 -0.564638 -0.416788 6.37628 0 0 0 0 0 
183 1 1.23148 14.0807 7.82602 -0.00149429 0.00700337 0.00423121 8.04471 -5.16358 -6.84021 0 0 0 0 0 
602 1 2.88474 15.4562 6.18125 -0.00157331 -0.00386634 -0.000211675 -0.422716 4.22964 2.25473 0 0 0 0 0 
181 1 -0.096559 12.5648 6.16438 -0.00336126 0.00278786 0.0052873 -4.54788 -1.58973 -0.138521 0 0 0 0 0 
285 1 6.0317 12.4916 12.359 -0.000557931 0.00430585 0.00498532 -3.41042 -1.76533 -3.43728 0 0 0 0 0 
184 1 4.54705 14.3638 10.7674 0.00371132 0.00157259 0.00331537 0.688098 -4.07234 0.189105 0 0 0 0 0 
186 1 9.11214 12.3719 9.00568 -0.00364447 -0.000740132 -0.0044034 2.55891 1.2318 1.98246 0 0 0 0 0 
187 1 7.36684 13.9065 7.54349 -0.00338999 0.00220647 0.000148706 3.5089 -0.988903 -0.463169 0 0 0 0 0 
706 1 9.2858 15.0713 12.2375 0.00764355 -0.00454788 0.00298569 -3.62295 8.62069 7.84062 0 0 0 0 0 
606 1 9.40161 15.3472 6.33888 0.000806264 -0.006049 -8.03929e-06 -1.80859 1.51659 0.884621 0 0 0 0 0 
188 1 10.885 13.8198 10.887 -0.00153039 -0.00187056 -0.00223157 0.925002 -6.14631 -5.81425 0 0 0 0 0 
189 1 12.4759 12.5166 6.22718 0.000983527 0.000499332 0.00253154 2.30984 -1.43759 -0.0726749 0 0 0 0 0 
192 1 17.1796 13.9045 10.511 0.00837012 0.0030243 -0.00166922 0.175075 1.99039 9.64545 0 0 0 0 0 
190 1 15.8007 12.2465 9.17145 0.00293145 0.000454291 0.00750883 -2.65505 0.00191498 -2.45218 0 0 0 0 0 
191 1 14.0301 13.9153 8.07537 0.000891569 0.00079339 0.00519776 0.0640672 0.166521 -3.70657 0 0 0 0 0 
195 1 19.8447 13.9254 7.30067 0.00248021 -0.00656984 0.00136478 -0.390562 0.749536 6.41094 0 0 0 0 0 
194 1 21.5017 12.4499 8.90674 0.000583436 -0.00108425 0.00762275 -1.0834 0.908642 3.10432 0 0 0 0 0 
196 1 22.9767 13.7976 10.8434 0.00452574 -0.00265039 -0.000579751 5.39002 2.05533 -3.63399 0 0 0 0 0 
714 1 21.4502 15.4556 12.273 -0.00368382 0.00283679 -0.000560603 4.55954 3.38121 3.86234 0 0 0 0 0 
199 1 26.0418 14.196 7.70833 0.00627892 0.00119431 -0.00109942 6.87611 -0.257988 2.50594 0 0 0 0 0 
297 1 25.0574 12.2402 12.1097 -0.00092565 -0.0040865 0.00060384 -4.33545 0.294179 3.20535 0 0 0 0 0 
198 1 27.9764 12.3948 9.11768 -0.00198575 0.00408526 0.00321417 1.61664 7.01476 -3.30123 0 0 0 0 0 
200 1 29.4936 14.4499 10.6547 -0.00171664 0.00511024 0.00267855 -5.89888 -8.09383 4.0981 0 0 0 0 0 
281 1 30.8769 12.3427 12.0715 0.000764405 -0.00163046 -0.00375455 -0.391817 5.36828 3.26415 0 0 0 0 0 
205 1 1.42516 1.47286 14.3552 -0.000946137 -0.00433704 0.000711782 1.36251 -10.9951 -8.73075 0 0 0 0 0 
203 1 3.05906 0.0340013 15.8955 0.00465003 -0.00120803 0.00255515 3.78231 1.17334 -1.59207 0 0 0 0 0 
202 1 0.12148 3.0444 15.4951 -0.00274974 -0.00408708 -0.00234542 -9.86577 2.58194 10.1478 0 0 0 0 0 
204 1 2.89974 3.1044 13.0592 -0.00278042 -0.00094179 -0.00119448 5.72248 1.98053 -12.8411 0 0 0 0 0 
207 1 4.87554 1.54421 17.4807 0.00245407 0.000112345 0.00358653 -2.37763 -2.33314 -3.21359 0 0 0 0 0 
210 1 6.22597 2.92859 15.4246 0.00529448 -0.00236132 -0.003533 -0.568903 -2.42035 1.38769 0 0 0 0 0 
213 1 7.61888 0.953243 14.1476 0.000700551 -0.00218297 0.00635938 3.00538 10.0632 -2.11794 0 0 0 0 0 
212 1 9.27699 2.94328 12.5483 -0.00143376 0.000265893 -0.00231033 -6.63099 0.277397 2.47994 0 0 0 0 0 
312 1 9.11412 2.68389 18.5263 0.00205361 -0.00477811 -0.00326734 -1.10457 5.91094 2.20326 0 0 0 0 0 
215 1 10.794 1.42655 16.9636 -0.00154122 0.000224957 -0.00223857 -3.90293 -1.96504 -2.69652 0 0 0 0 0 
218 1 12.2435 3.03572 15.5703 -9.24569e-05 -0.00575951 1.54761e-05 4.05752 -0.958968 -3.45657 0 0 0 0 0 
221 1 13.9572 1.14935 14.0684 0.000684517 0.00493344 0.00719489 -2.0772 7.67196 -0.665984 0 0 0 0 0 
223 1 16.6153 1.56842 16.8621 0.00296263 0.000333201 -0.00211107 2.60357 1.62293 5.22129 0 0 0 0 0 
226 1 18.3906 2.93119 15.2854 -0.000389474 -0.0019378 -0.000613089 0.125392 1.29552 3.18967 0 0 0 0 0 
229 1 20.2974 1.49888 14.1573 -0.00222956 -0.00467713 0.00111016 -1.16911 0.788834 -4.55672 0 0 0 0 0 
325 1 18.3542 0.135547 18.5744 4.37098e-05 -0.00309081 -0.000386069 4.24441 1.72742 -3.59007 0 0 0 0 0 
225 1 18.6814 0.221651 12.4246 -0.00095835 -0.00226484 0.00216594 -0.872637 -6.18626 0.0479843 0 0 0 0 0 
227 1 21.8518 -0.0798996 15.6099 0.00123589 -0.00128722 -0.00239297 -0.747487 -1.30169 -3.28236 0 0 0 0 0 
231 1 23.2283 1.8 16.9115 0.000430192 -0.0039296 -0.000196491 3.26832 -3.86285 0.605879 0 0 0 0 0 
328 1 21.5498 2.91121 18.5914 0.00361944 0.000462796 0.00464195 2.55746 3.48859 1.70305 0 0 0 0 0 
234 1 24.8721 3.30843 15.2044 0.000739136 0.00277109 -0.000622607 1.84972 -4.47627 3.74839 0 0 0 0 0 
237 1 26.4447 1.59586 13.6677 -0.0013545 0.00143503 -0.00283554 -0.604814 0.503585 0.607169 0 0 0 0 0 
333 1 24.6858 0.0556896 18.5557 -0.000755796 0.00361026 -0.00238475 4.60352 1.75475 -2.60616 0 0 0 0 0 
239 1 29.4923 1.24571 16.8662 0.0014267 -0.000824593 -0.00128684 0.592144 1.65987 0.978154 0 0 0 0 0 
336 1 28.0905 2.90705 18.6095 0.00116234 0.00437941 -0.00274512 -1.45337 2.22868 0.020484 0 0 0 0 0 
206 1 1.541 4.72448 17.0045 0.00550724 0.00666742 0.000536942 5.43245 -1.34718 3.43857 0 0 0 0 0 
243 1 3.44621 6.37292 15.5403 0.00407015 0.00246855 -0.00273844 -5.64287 -4.54781 -4.05253 0 0 0 0 0 
208 1 5.15369 4.68256 13.6533 -0.00141428 -0.00349048 0.000373298 -7.4985 0.435224 6.48218 0 0 0 0 0 
214 1 7.49128 4.54666 17.0059 0.00351987 0.00427854 -0.00447033 3.9333 2.49166 3.08259 0 0 0 0 0 
251 1 9.07827 6.21616 15.338 -0.00464777 0.00249712 0.000346184 -1.15681 1.81194 6.82519 0 0 0 0 0 
216 1 10.6276 4.60973 14.0609 -0.00143315 -0.00379148 0.000900053 4.10491 -0.804241 -3.27833 0 0 0 0 0 
357 1 12.2693 6.06076 18.4519 0.00611407 -0.00211959 0.00103247 -1.86265 0.875501 5.14237 0 0 0 0 0 
222 1 13.8233 4.67765 17.0312 -0.00371065 0.00280544 0.00128637 -2.37306 1.25767 -6.87475 0 0 0 0 0 
259 1 15.1345 6.19232 15.2177 0.00667437 -0.00244621 -0.00407823 1.74459 0.186932 0.509942 0 0 0 0 0 
224 1 16.8861 4.54745 13.7981 -0.00430268 -0.00101963 -0.00486652 -0.703406 0.796476 0.830199 0 0 0 0 0 
263 1 17.0935 7.37018 16.7992 0.00594697 0.00231501 0.00672894 -1.20358 -0.416774 -0.18933 0 0 0 0 0 
230 1 20.2278 4.40325 16.7203 0.00302618 -0.00247363 -0.000486422 -1.16357 0.377296 3.15102 0 0 0 0 0 
365 1 18.8525 6.02335 18.4675 -0.00116784 -0.000364797 0.000448988 -5.45369 -2.80097 -2.85173 0 0 0 0 0 
232 1 23.1992 4.40903 13.5874 0.00155316 0.00285882 -0.00314404 4.74087 7.23319 -1.98662 0 0 0 0 0 
267 1 21.9912 5.98759 15.3829 0.0030884 -0.00165607 0.000885043 -3.14578 3.29536 -0.491889 0 0 0 0 0 
271 1 23.5216 7.70034 17.0383 0.00335182 0.000558543 0.00469197 -4.09396 -0.734479 -1.71629 0 0 0 0 0 
373 1 24.866 6.00721 18.5 0.0013657 -0.00102126 -0.00362746 -1.21314 6.23815 4.69161 0 0 0 0 0 
238 1 26.3387 4.67567 17.1893 -0.00647512 -0.00369774 0.00116288 9.55523 -7.03335 -9.96452 0 0 0 0 0 
277 1 26.4245 7.59045 13.6189 0.000697376 -0.00188757 0.00151116 2.1564 -0.640425 2.04288 0 0 0 0 0 
275 1 28.211 6.09387 15.4189 -0.0011803 -0.000976044 0.000647903 -5.62661 -2.57743 -1.19651 0 0 0 0 0 
240 1 29.8302 4.39613 13.9108 -0.000119046 -0.000817543 0.00172175 -5.48396 1.6815 -1.78206 0 0 0 0 0 
279 1 29.5778 7.44497 17.2148 -0.00472281 -0.00155231 0.00322234 -3.34177 7.40274 0.484928 0 0 0 0 0 
245 1 1.4047 7.80731 14.0718 0.00535736 -0.00136023 0.00516416 2.81078 -2.15337 -3.24859 0 0 0 0 0 
246 1 1.58212 10.835 17.1325 -0.00117697 0.00313624 -0.00229841 -0.472517 -2.65639 -5.56629 0 0 0 0 0 
247 1 4.52779 8.00249 17.2148 0.00232073 0.00647971 0.00355853 0.100462 -0.13476 2.35836 0 0 0 0 0 
248 1 4.75329 10.8106 14.0851 0.00210958 0.00168846 -0.00337849 -6.1071 4.15942 -6.77916 0 0 0 0 0 
250 1 6.1498 9.35258 15.5641 0.000365644 -0.000754178 -0.00286337 5.12206 -1.17205 4.18653 0 0 0 0 0 
253 1 7.74091 8.02097 13.8211 -0.000199891 -0.000794574 -0.00212504 0.328055 -0.0464057 1.88744 0 0 0 0 0 
254 1 7.83681 10.6666 17.3482 -0.000345848 0.00114214 0.00334285 -5.83721 4.79314 -4.63521 0 0 0 0 0 
255 1 10.6407 7.72287 17.2638 -0.00739556 -0.00149187 -0.000419931 -4.05835 -5.36373 -4.09612 0 0 0 0 0 
256 1 10.5878 10.9144 13.9786 -6.44262e-05 0.00234909 -0.00135407 0.243313 -0.406231 6.40742 0 0 0 0 0 
258 1 11.9438 9.14974 15.6179 0.00194841 0.00315768 -0.00189489 -2.37324 6.70684 -0.96951 0 0 0 0 0 
262 1 13.506 10.5889 17.128 0.00313727 0.00103635 0.00499142 8.15708 -0.729098 -2.52335 0 0 0 0 0 
261 1 13.3738 8.04194 13.8844 -0.00412898 -0.00330428 0.000849662 7.2231 -7.99343 -5.67368 0 0 0 0 0 
264 1 17.2162 10.7468 13.9449 0.00332954 0.00564684 -0.000858505 0.191765 -0.519199 -2.75817 0 0 0 0 0 
260 1 15.5134 9.32935 12.4242 -0.000385233 0.000462889 2.2361e-05 -1.65068 -1.67502 -0.616074 0 0 0 0 0 
360 1 15.4305 8.94695 18.1802 0.0047302 0.00263884 0.000570305 0.134093 2.01101 4.08526 0 0 0 0 0 
269 1 20.2752 7.72958 13.9157 8.42158e-05 0.000948131 -0.00216836 5.74668 -7.47597 -8.34364 0 0 0 0 0 
266 1 18.6133 8.86782 15.2627 0.0062722 -0.00551669 -0.000531065 -0.699301 9.02403 6.09781 0 0 0 0 0 
270 1 20.4147 10.6058 16.7751 -0.00397202 0.00376344 -0.00313611 3.06066 -3.0472 -0.0165486 0 0 0 0 0 
272 1 23.2413 10.6873 14.0352 0.00174518 0.00152838 0.0041739 1.42592 6.58674 -7.19622 0 0 0 0 0 
274 1 24.8597 9.18472 15.2062 -0.00279152 0.0034286 -0.00221715 4.9733 -1.3442 5.85227 0 0 0 0 0 
278 1 26.3918 10.9718 16.9001 -0.00277342 0.00189945 -0.00189182 0.121416 1.41979 -3.27085 0 0 0 0 0 
242 1 30.9146 9.23855 15.6098 0.00586589 -0.00388623 0.00355755 5.79476 0.208819 3.04319 0 0 0 0 0 
280 1 29.6207 10.8862 14.0099 -0.00554155 -0.00366512 -0.00195708 -4.54597 1.30161 -2.48184 0 0 0 0 0 
376 1 27.7694 9.56029 18.5939 0.00136094 -0.00138525 0.00147754 4.19582 -8.23156 -2.93368 0 0 0 0 0 
802 1 3.23697 15.4008 18.4977 -0.00361663 -0.00391246 0.00422549 -5.21728 3.57996 0.378712 0 0 0 0 0 
701 1 -0.0467521 15.4899 15.5811 0.0014105 0.00218868 -0.00367338 -3.90136 1.42101 -4.60236 0 0 0 0 0 
283 1 1.17501 14.001 13.7311 -0.00229819 -0.00316882 -0.00250793 4.41692 -1.91177 0.53009 0 0 0 0 0 
282 1 3.03317 12.4716 15.3132 -0.00569205 0.000771061 -0.00562877 -2.11706 -0.997983 2.28335 0 0 0 0 0 
381 1 0.000775563 12.4623 18.2832 0.00419086 0.00466944 -1.37873e-05 0.645513 1.2075 6.69975 0 0 0 0 0 
705 1 6.25742 15.3502 15.2936 -0.00490089 0.00439123 0.000221218 -2.77533 7.17115 2.90972 0 0 0 0 0 
284 1 4.69159 13.8925 16.9348 -0.00120677 -0.00631553 0.00377854 1.14612 -3.23824 0.718807 0 0 0 0 0 
286 1 9.2255 12.5216 15.8522 -0.000920125 -0.00840761 0.000781525 0.209111 -5.02815 -2.92479 0 0 0 0 0 
287 1 7.64816 13.6672 13.9143 0.00436291 0.000296887 0.00189946 5.02764 3.03002 0.285088 0 0 0 0 0 
806 1 9.39038 15.4364 18.363 -0.00276323 -0.00066667 0.00466065 1.38652 0.847664 4.73257 0 0 0 0 0 
709 1 12.5016 15.361 15.4897 0.00107897 0.00145943 0.00453195 1.42716 -4.10661 1.3151 0 0 0 0 0 
288 1 11.0814 13.8407 17.2608 0.00430641 0.000372589 -0.00226789 4.41898 -2.0556 -0.133943 0 0 0 0 0 
289 1 12.266 12.1392 12.4681 0.006197 -0.00170073 -0.00405351 4.30769 4.11372 -3.22546 0 0 0 0 0 
290 1 15.3655 11.8668 15.4635 -0.00130944 -0.00330151 0.000961388 0.392668 4.61587 2.16094 0 0 0 0 0 