
# Define the lattice
variable	lattice_constant equal 6.2045
lattice		diamond ${lattice_constant}
lattice		diamond 6.2045
Lattice spacing in x,y,z = 6.2045 6.2045 6.2045

# Define region
# multiples of lattice spacing
region 		simbox block 0 5 0 5 0 5

# Create Atoms
create_box 	1 simbox
Created orthogonal box = (0 0 0) to (31.0225 31.0225 31.0225)
  1 by 2 by 5 MPI processor grid
create_atoms 	1 box
Created 1000 atoms
  Time spent = 0.000433445 secs
mass		1 18.015

# Define potential

pair_style 	    sw
pair_coeff	    * * mW_real.sw mW
Reading potential file mW_real.sw with DATE: 2019-02-27

# Run minimization and output files

minimize 	    1.0e-8 1.0e-8 10000 1000
WARNING: Using 'neigh_modify every 1 delay 0 check yes' setting during minimization (../min.cpp:168)
Neighbor list info ...
  update every 1 steps, delay 0 steps, check yes
  max neighbors/atom: 2000, page size: 100000
  master list distance cutoff = 6.3065
  ghost atom cutoff = 6.3065
  binsize = 3.15325, bins = 10 10 10
  1 neighbor lists, perpetual/occasional/extra = 1 0 0
  (1) pair sw, perpetual
      attributes: full, newton on
      pair build: full/bin/atomonly
      stencil: full/bin/3d
      bin: standard
Per MPI rank memory allocation (min/avg/max) = 4.222 | 4.223 | 4.223 Mbytes
Step Temp E_pair E_mol TotEng Press 
       0            0   -12377.971            0   -12377.971   -105.44223 
       1            0   -12377.971            0   -12377.971   -105.44223 
Loop time of 0.00045836 on 10 procs for 1 steps with 1000 atoms

89.7% CPU use with 10 MPI tasks x no OpenMP threads

Minimization stats:
  Stopping criterion = energy tolerance
  Energy initial, next-to-last, final = 
        -12377.9708464     -12377.9708464     -12377.9708464
  Force two-norm initial, final = 2.38308e-12 2.38147e-12
  Force max component initial, final = 8.32326e-14 8.59243e-14
  Final line search alpha, max atom move = 1 8.59243e-14
  Iterations, force evaluations = 1 2

MPI task timing breakdown:
Section |  min time  |  avg time  |  max time  |%varavg| %total
---------------------------------------------------------------
Pair    | 0.00020909 | 0.00027676 | 0.00030637 |   0.0 | 60.38
Neigh   | 0          | 0          | 0          |   0.0 |  0.00
Comm    | 5.0306e-05 | 7.9656e-05 | 0.00014877 |   0.0 | 17.38
Output  | 0          | 0          | 0          |   0.0 |  0.00
Modify  | 0          | 0          | 0          |   0.0 |  0.00
Other   |            | 0.0001019  |            |       | 22.24

Nlocal:    100 ave 100 max 100 min
Histogram: 10 0 0 0 0 0 0 0 0 0
Nghost:    803 ave 803 max 803 min
Histogram: 10 0 0 0 0 0 0 0 0 0
Neighs:    0 ave 0 max 0 min
Histogram: 10 0 0 0 0 0 0 0 0 0
FullNghs:  3400 ave 3400 max 3400 min
Histogram: 10 0 0 0 0 0 0 0 0 0

Total # of neighbors = 34000
Ave neighs/atom = 34
Neighbor list builds = 0
Dangerous builds = 0
write_restart	min.${NAME}.rst
write_restart	min.ice_steinhardt_param.rst
write_data      min.${NAME}.data
write_data      min.ice_steinhardt_param.data

# Equilibration of ice

# Add velocity/set timestep

velocity	    all create ${TEMP} 120598 rot yes dist gaussian
velocity	    all create 228 120598 rot yes dist gaussian
timestep	    5.0

# Define output
compute			1 all msd

thermo	    	50
thermo_style	custom step temp press vol etotal ke pe c_1[4]

# Neighbor lists

neigh_modify    delay 0 every 1 check yes

# Set fixes

fix             1 all momentum 10 linear 1 1 1 rescale
fix             2 all nve
fix             3 all temp/csvr ${TEMP} ${TEMP} 500.0 928347
fix             3 all temp/csvr 228 ${TEMP} 500.0 928347
fix             3 all temp/csvr 228 228 500.0 928347
fix             4 all press/berendsen iso ${PRES} ${PRES} 1000.0 modulus 20000
fix             4 all press/berendsen iso 1 ${PRES} 1000.0 modulus 20000
fix             4 all press/berendsen iso 1 1 1000.0 modulus 20000

# Run 1 ns equilibration

#dump		    1 all xtc 2000 eq.${NAME}-p1t${TEMP}.xtc
dump		    1 all atom 1000 eq.${NAME}-p1t${TEMP}.dump
dump		    1 all atom 1000 eq.ice_steinhardt_param-p1t${TEMP}.dump
dump		    1 all atom 1000 eq.ice_steinhardt_param-p1t228.dump

reset_timestep  0

run	            200000
Per MPI rank memory allocation (min/avg/max) = 4.476 | 4.477 | 4.477 Mbytes
Step Temp Press Volume TotEng KinEng PotEng c_1[4] 
       0          228    934.08797    29855.915   -11699.026    678.94507   -12377.971            0 
      50    169.67691    507.70927    30063.792   -11533.749    505.26888   -12039.018  0.060280786 
     100    162.25193     186.8192    30175.185   -11429.675    483.15853   -11912.833  0.078143466 
     150    172.61748    165.48812    30242.707   -11353.555    514.02538   -11867.581  0.078012951 
     200    175.26895    49.458648    30269.014   -11291.331      521.921   -11813.252  0.092911116 
     250    167.66386    8.9927246    30300.986   -11211.016    499.27434    -11710.29   0.11233647 
     300    189.40259    10.252051    30338.618   -11157.633    564.00857   -11721.642   0.10896656 
     350    189.68916   -14.988675    30362.426   -11129.414    564.86193   -11694.276   0.12121241 
     400    215.79514    83.023629    30379.036   -11099.732    642.60108   -11742.333   0.10498601 
     450    222.46246    31.240674    30399.302   -11065.733    662.45521   -11728.188   0.10778943 
     500    223.51293    43.987584    30410.532   -11061.973    665.58335   -11727.556   0.11403818 
     550    247.99248    136.88256    30411.595   -11006.756    738.47925   -11745.235   0.10102454 
     600     225.1066    93.923573    30421.692   -10969.056    670.32901   -11639.385   0.13109417 
     650    230.92514    73.476436     30446.32   -10958.075    687.65563   -11645.731   0.12168092 
     700    223.17329    -40.54117    30441.105   -10953.211    664.57195   -11617.783   0.14125257 
     750     222.4525   -75.431008    30453.331   -10960.781    662.42556   -11623.206   0.13121789 
     800    233.40757    77.546222    30469.865   -10931.762     695.0479    -11626.81   0.11554944 
     850    230.48348    -7.495218    30462.622   -10944.664    686.34044   -11631.004   0.14022432 
     900    212.14194   -59.922476    30468.446       -10940    631.72248   -11571.723   0.14625808 
     950    234.66593    2.7604169    30472.919    -10967.46    698.79508   -11666.255    0.1077281 
    1000    230.92545    4.2675143    30457.317    -10969.27    687.65656   -11656.927   0.12756484 
    1050    223.08039    10.853496    30459.482   -10981.511    664.29532   -11645.806   0.12731269 
    1100    221.04783     38.73186    30467.112   -10960.278    658.24269   -11618.521   0.12298378 
    1150    224.00193    7.1131383    30461.234    -10982.06    667.03951     -11649.1   0.12906848 
    1200     227.4471   -6.1422158     30458.89   -10958.909    677.29862   -11636.208    0.1242988 
    1250     228.1014    3.3379114    30463.367   -10946.059    679.24702   -11625.306   0.13109131 
    1300    237.63822    46.819412    30467.689   -10921.078    707.64604   -11628.724   0.13394167 
    1350    232.15971   -23.822465    30458.852    -10945.62    691.33197   -11636.952   0.12539987 
    1400    227.29958   -26.028221    30465.926   -10946.105    676.85933   -11622.965   0.13960856 
    1450     237.5671    17.364355    30460.048   -10970.489    707.43426   -11677.923   0.12289813 
    1500     229.6621   -8.5648065    30450.588   -10962.319     683.8945   -11646.214   0.11804508 
    1550    227.99283    -61.41997    30453.845   -10948.514    678.92372   -11627.438   0.13665238 
    1600    228.57483    84.218876    30461.988    -10950.38    680.65682   -11631.037   0.13599246 
    1650    236.63021    30.399943    30455.294   -10932.196    704.64436    -11636.84   0.12696165 
    1700    227.38968   -14.850505    30456.797   -10957.853    677.12764    -11634.98   0.12668863 
    1750     240.6782    71.003311    30460.128   -10942.712    716.69857   -11659.411   0.12378806 
    1800    229.70593    58.639588    30461.536   -10939.014    684.02503   -11623.039   0.13025354 
    1850    235.52647   -39.404037    30464.134   -10937.065    701.35761   -11638.423   0.12905617 
    1900    235.23641     23.23434    30483.584   -10914.892    700.49385   -11615.386   0.12941182 
    1950    237.76005   -10.341974    30477.877    -10905.92    708.00884   -11613.928   0.13778357 
    2000    238.94246   -12.080483    30472.074   -10896.698    711.52984   -11608.228   0.12943869 
    2050    222.90357   -59.882283    30480.966   -10937.675    663.76878   -11601.444   0.13650181 
    2100    225.98212   -26.719917    30468.824   -10948.595    672.93616   -11621.531   0.13208155 
    2150    227.25756   -18.814761     30466.05   -10934.901    676.73421   -11611.635   0.13460016 
    2200    228.19385   -11.338869    30473.092   -10938.761    679.52233   -11618.283     0.122403 
    2250    234.74722   -11.721818    30466.731   -10938.476    699.03713   -11637.514   0.13375159 
    2300    236.05598   -40.022516    30464.867   -10929.528    702.93439   -11632.462   0.13204168 
    2350    237.91993    39.061009    30475.673    -10934.54    708.48491   -11643.025   0.12877285 
    2400    237.47569    12.704029     30460.77   -10931.117    707.16207   -11638.279   0.13392858 
    2450    241.22442     27.20895    30465.303   -10944.513    718.32512   -11662.838   0.11135087 
    2500     236.7807     -29.4337    30469.089   -10950.623     705.0925   -11655.716   0.13242832 
    2550    238.22504    2.9343446    30461.111   -10933.842    709.39349   -11643.235   0.13233195 
    2600    230.94673   -47.302566    30467.694   -10938.685    687.71993   -11626.405   0.12539221 
    2650    231.09859    -50.36212    30470.723   -10939.839    688.17213   -11628.011   0.12812573 
    2700    225.12646   -8.3236515    30468.802   -10950.455    670.38816   -11620.843   0.13958214 
    2750    229.77162    24.863232    30469.161   -10933.377    684.22064   -11617.597   0.11202543 
    2800    227.09283   -44.709965    30473.779   -10920.246    676.24368   -11596.489   0.13970947 
    2850    236.67203    56.731431    30478.017   -10919.544    704.76888   -11624.313   0.12776358 
    2900    248.51541    54.980742    30471.912   -10919.667    740.03646   -11659.704   0.12211759 
    2950    233.98434   -21.634667    30473.916   -10937.333     696.7654   -11634.098   0.12561305 
    3000    241.03364   -24.872219    30477.416   -10933.975    717.75702   -11651.732    0.1273886 
    3050    234.65264    -9.411624    30477.865   -10918.046     698.7555   -11616.802   0.14093906 
    3100    240.70617   -25.402351    30492.485   -10928.789    716.78187   -11645.571   0.12480877 
    3150    238.52911    39.560997    30494.226   -10939.663    710.29895   -11649.962   0.12177934 
    3200    230.01595    29.827865    30485.708   -10972.066    684.94823   -11657.014   0.12313932 
    3250    219.58363    15.142488    30470.293   -11003.159    653.88257   -11657.042   0.12007536 
    3300    219.71727    7.0609348    30460.948   -11015.558     654.2805   -11669.838    0.1137556 
    3350    215.81828  -0.86913641    30456.304   -10983.498    642.66999   -11626.168   0.13226007 
    3400    227.37091    26.526212     30467.03   -10967.465    677.07176   -11644.536   0.11335902 
    3450    222.89219   -34.411905    30477.041   -10950.263    663.73488   -11613.998   0.14067087 
    3500    225.48252      6.94107    30474.736   -10967.581    671.44844    -11639.03   0.11844993 
    3550    234.29227    25.636411    30474.927   -10956.655    697.68238   -11654.338   0.11525644 
    3600    228.06248    7.6489031    30475.659   -10968.179    679.13112    -11647.31   0.13395248 
    3650    230.03706      19.5243    30475.433   -10943.775     685.0111   -11628.786   0.12602994 
    3700    229.05414    65.529136    30473.131   -10939.854    682.08411   -11621.938   0.11307034 
    3750    226.82451   -27.507261    30484.212       -10928    675.44466   -11603.445   0.13709874 
    3800    230.17129    13.380237    30483.724   -10932.285    685.41079   -11617.696   0.13482253 
    3850    229.65175   0.59891906    30483.786   -10925.125    683.86369   -11608.989   0.12257127 
    3900    234.39642    40.874991    30494.234   -10925.318    697.99251   -11623.311    0.1298308 
    3950    242.31617    43.299755    30491.088    -10931.77    721.57616   -11653.346   0.12068216 
    4000    235.29124    11.234504    30483.332   -10956.881    700.65714   -11657.538   0.13001044 
    4050    237.65753   -35.527735    30481.894   -10960.261    707.70354   -11667.964   0.12090348 
    4100     234.2233    -16.39011     30479.66   -10949.402      697.477   -11646.879   0.12664019 
    4150    241.82351    9.1228691    30478.858   -10944.196    720.10912   -11664.305   0.12102913 
    4200     234.1586   -74.748324    30471.684    -10937.04    697.28431   -11634.324   0.12996026 
    4250    226.41023   -40.720003    30477.573   -10961.823    674.21101   -11636.034   0.12450005 
    4300    228.95703    10.847903    30466.266   -10981.986    681.79494   -11663.781   0.12371808 
    4350    227.50436    51.561329    30462.442    -10951.44    677.46915   -11628.909    0.1257015 
    4400    231.31727   -27.661446    30471.786   -10957.414    688.82332   -11646.238   0.12963713 
    4450    227.10772    49.891977    30470.287   -10968.612    676.28802     -11644.9   0.12032145 
    4500    224.19809   -48.270872    30467.163   -10958.779    667.62362   -11626.403   0.12804982 
    4550    215.97895   -4.5608107    30464.282   -10973.236    643.14842   -11616.384   0.14034217 
    4600    219.93744   0.61679139     30457.14   -11003.541    654.93615   -11658.477   0.11903016 
    4650    224.61182    14.046358    30462.321   -10970.375    668.85564    -11639.23   0.11063013 
    4700    227.76088     33.86122    30464.733   -10950.896      678.233   -11629.129   0.13739555 
    4750    232.60019    35.890484    30468.593    -10936.55    692.64364   -11629.194   0.12947182 
    4800    231.58269    77.160659    30483.608   -10935.861    689.61369   -11625.475   0.11641583 
    4850    235.43332    4.8890709    30479.005   -10928.019    701.08021   -11629.099   0.13897776 
    4900    226.70794   -35.283755    30487.621    -10909.83    675.09753   -11584.927   0.13611529 
    4950    226.54666    14.871062     30493.06    -10907.99    674.61726   -11582.608   0.12547977 
    5000    214.66852   -45.424985    30487.669   -10950.861    639.24621   -11590.108   0.13600057 
    5050    220.27471   -49.869312    30475.057    -10933.86    655.94046     -11589.8   0.13971652 
    5100    236.41868    44.889541    30478.538   -10928.126    704.01447   -11632.141   0.12445861 
    5150    237.47405    17.391557    30475.255   -10917.237    707.15718   -11624.394   0.13044181 
    5200    228.51293    28.652349    30473.835   -10947.173    680.47249   -11627.645   0.12233933 
    5250    220.03949   -49.231327    30466.501   -10982.075    655.24002   -11637.315   0.13470656 
    5300     219.5421   -28.044406    30460.431   -10989.676    653.75887   -11643.435   0.12609402 
    5350    221.01119   -56.085387    30455.154   -10993.354    658.13359   -11651.488   0.12646201 
    5400    220.13182   -7.6318783    30453.318   -10983.275    655.51499    -11638.79   0.12055809 
    5450    231.82182    36.938698    30458.511   -10971.036    690.32579   -11661.362   0.12972092 
    5500    222.11917    50.650479    30453.632   -10967.932    661.43296   -11629.365   0.13398577 
    5550    226.75182    6.5906943     30455.89    -10980.31    675.22819   -11655.539   0.11695426 
    5600    224.88126   -23.964816     30442.32   -10993.668    669.65798   -11663.326   0.11947596 
    5650    215.96457   -19.344995    30445.456   -10971.218    643.10561   -11614.323   0.15009299 
    5700    226.48513    -20.01367    30445.983   -10961.301    674.43404   -11635.735    0.1219527 
    5750    228.39391    39.627343    30455.519   -10980.754    680.11805   -11660.872   0.11675963 
    5800    224.68404   -3.9092741    30455.808   -10957.918    669.07071   -11626.989   0.15032238 
    5850    223.60169    26.989744    30465.897   -10987.389    665.84764   -11653.237   0.11633986 
    5900    224.87534    2.4127811    30455.826   -10991.378    669.64037   -11661.018   0.11574202 
    5950    219.14895   -76.854696    30443.121   -11006.544    652.58816   -11659.132   0.13090852 
    6000    213.63432   -56.007433    30442.549   -10999.358    636.16654   -11635.525   0.13426846 
    6050    225.85681   -81.448778    30445.999   -10993.846    672.56301   -11666.409   0.11763176 
    6100    219.73712    -28.70127    30438.412   -10992.877    654.33961   -11647.217   0.13174819 
    6150    218.57836   -6.1735737    30434.135   -11001.686    650.88903   -11652.575   0.11821884 
    6200    223.03456   -39.741855    30447.991    -10985.24    664.15882   -11649.399   0.13107989 
    6250      222.086    14.399173    30442.893   -10978.344    661.33419   -11639.678   0.12454407 
    6300    231.79181    48.658252    30447.442   -10944.072    690.23644   -11634.309   0.12870542 
    6350    238.27719    60.595141     30461.58    -10927.72    709.54877   -11637.269   0.13131731 
    6400    222.53146    17.625394     30460.47   -10962.489     662.6607    -11625.15   0.12803989 
    6450    226.65588   -28.229757    30450.495   -10967.205     674.9425   -11642.147   0.12556543 
    6500    230.62308   -9.5667435     30453.13   -10970.381    686.75616   -11657.138   0.11794387 
    6550    220.13296   -19.815921    30449.797   -10988.894    655.51837   -11644.412   0.13285434 
    6600    227.79916   -76.259365    30444.764   -10989.581      678.347   -11667.928   0.12393872 
    6650     219.5887   -10.272447    30438.041   -10988.825    653.89764   -11642.723   0.12047391 
    6700    224.87596    1.6041954    30446.803   -10987.082     669.6422   -11656.724   0.12047106 
    6750    215.94705   -41.258767    30435.886   -11005.097    643.05345   -11648.151     0.135967 
    6800    221.92681   -37.066462    30432.109   -10988.818    660.86015   -11649.678   0.11445593 
    6850    219.35693   -10.949501    30437.657   -10974.486    653.20749   -11627.694   0.12632142 
    6900    225.31418   -39.980297    30438.083   -10964.393    670.94716    -11635.34    0.1387116 
    6950    222.48298    8.0130475    30443.831   -10962.699    662.51631   -11625.215   0.12598007 
    7000     224.7446   -57.512414     30445.35   -10964.821    669.25105   -11634.072   0.12761807 
    7050    228.16583   -28.815044     30441.57   -10955.434    679.43887   -11634.873    0.1366585 
    7100    226.10812    55.592234    30441.106   -10958.946    673.31137   -11632.258   0.12667698 
    7150    235.14103    5.2492324    30441.304   -10952.036    700.20982   -11652.246   0.12739226 
    7200    223.78191   -55.719678    30430.074   -10993.153    666.38431   -11659.537   0.13083076 
    7250    217.45491   -79.796862    30430.582   -11004.312    647.54358   -11651.856   0.12681796 
    7300    224.26045   -29.631703    30421.214   -11008.864    667.80932   -11676.673   0.12958281 
    7350    222.51517   -11.363705    30420.646    -10989.85    662.61219   -11652.462   0.12449845 
    7400    223.17623    34.178809    30423.253   -10980.069    664.58071    -11644.65   0.12193061 
    7450    235.40565    43.825051    30426.505   -10973.453    700.99783   -11674.451   0.12808976 
    7500    229.87695    57.876286    30422.685   -10977.769     684.5343   -11662.304   0.12985577 
    7550    227.92009   -33.320148    30425.112   -10978.292    678.70711   -11656.999   0.12658581 
    7600    228.86427  -0.16198002    30426.083   -10962.163     681.5187   -11643.682   0.13048116 
    7650    231.44653    8.4667409    30435.064   -10956.019    689.20824   -11645.227   0.13512405 
    7700    223.19274   -117.07202    30434.635   -10957.554    664.62986   -11622.184    0.1402544 
    7750    219.39121   -3.8202167    30431.791    -10982.44    653.30955   -11635.749   0.12323546 
    7800    227.06516   -61.137755    30428.961   -10985.974    676.16127   -11662.136   0.13159354 
    7850    225.81489   -8.6964146    30429.542   -10989.306    672.43817   -11661.744    0.1350483 
    7900    225.18303    16.599601    30423.995   -10990.226    670.55661   -11660.783   0.11972684 
    7950    227.06607    53.902357    30425.673   -10963.545    676.16398   -11639.709   0.12727203 
    8000    228.84721     50.99726    30427.292   -10947.337     681.4679   -11628.805   0.14047296 
    8050    234.56076    82.796946    30432.089   -10943.089    698.48188   -11641.571   0.12358192 
    8100    233.99138    46.354868    30443.429   -10944.301    696.78636   -11641.088   0.12902712 
    8150     233.5692    6.9213294    30444.962   -10921.452     695.5292   -11616.982    0.1373557 
    8200    231.87316   -39.936899    30457.094   -10951.373    690.47868   -11641.852   0.13049369 
    8250    227.87633   -4.5751364    30458.469   -10940.428     678.5768   -11619.005   0.13570359 
    8300    233.48406     35.48738    30460.308   -10917.771    695.27566   -11613.046   0.13045905 
    8350    233.33504    8.0752667    30461.142    -10906.19    694.83189   -11601.022   0.13181929 
    8400    237.40872    18.827138     30465.79   -10906.559    706.96262   -11613.522   0.13809359 
    8450    228.42083    27.744765     30457.94   -10922.156    680.19821   -11602.354   0.13715161 
    8500     228.8748   -14.651609    30457.599   -10933.964    681.55007   -11615.514   0.12366398 
    8550    226.49757    1.7202513    30451.725   -10937.522    674.47109   -11611.993   0.13760498 
    8600    229.61627     28.71672    30448.401   -10934.513    683.75803   -11618.271   0.13068681 
    8650    227.54008    20.438207    30449.988   -10952.186    677.57549   -11629.761   0.12530714 
    8700    223.84438   -5.2633919    30448.312   -10946.001    666.57033   -11612.571   0.12932446 
    8750    225.33201   -9.9684693    30455.811   -10956.465    671.00025   -11627.465   0.13354532 
    8800     231.6625    49.770762     30449.57   -10946.083    689.85135   -11635.934   0.12173281 
    8850    229.16216   -21.696065    30450.724   -10977.025    682.40578   -11659.431   0.12101971 
    8900    227.28423   -44.131151    30450.947   -10979.791    676.81363   -11656.605   0.12893977 
    8950    225.63341   -34.925242    30447.804   -10989.456    671.89775   -11661.354   0.12869809 
    9000    231.59514    35.481427    30443.932   -10963.736    689.65078   -11653.387   0.11651955 
    9050    224.53002     6.805645    30453.586   -10961.257    668.61205   -11629.869   0.12549813 
    9100    231.54473  -0.14796104    30446.206   -10963.498    689.50068   -11652.999   0.13122642 
    9150    227.02826    43.350115    30444.551   -10969.645    676.05139   -11645.696   0.12062293 
    9200    235.42602    52.816209    30453.145   -10942.218    701.05847   -11643.277   0.13239003 
    9250    232.76936   -10.381455    30460.836   -10927.086     693.1474   -11620.233   0.13666039 
    9300    230.86093   -83.028878    30455.086   -10960.653    687.46443   -11648.118   0.12770542 
    9350    226.66552   -15.375776    30446.084    -10991.88    674.97122   -11666.851   0.12186768 
    9400    227.69474    -11.56036    30441.112   -10974.774    678.03606    -11652.81   0.12798227 
    9450    227.18486    33.765258    30450.082   -10959.203    676.51771   -11635.721   0.11754119 
    9500     224.5042    15.185142     30450.61   -10973.267    668.53518   -11641.802   0.13053759 
    9550    218.33246   -11.690962    30446.077   -10976.026    650.15678   -11626.183   0.12174348 
    9600    218.22547    -72.52812    30442.569   -11001.489    649.83818   -11651.327   0.12271613 
    9650    229.11884    1.2837064    30442.569   -10971.244    682.27677   -11653.521    0.1293448 
    9700    227.26312    48.945228    30445.888   -10963.161    676.75076   -11639.912   0.13054712 
    9750    235.80548     28.96395     30451.18   -10932.347    702.18846   -11634.535   0.12099168 
    9800      236.529    5.2159427    30451.575   -10940.736    704.34297   -11645.079   0.12952776 
    9850    240.72998    60.488215    30452.891   -10953.659    716.85278   -11670.512    0.1268585 
    9900    235.96237   -13.318462    30448.085   -10950.431    702.65564   -11653.087   0.12402914 
    9950    232.11207   -29.676284    30453.874    -10944.69     691.1901    -11635.88   0.12976763 
   10000     229.3009   -14.062704    30457.329   -10947.854    682.81891   -11630.673   0.12958488 
   10050    229.06305   -8.3912466    30452.161   -10965.786    682.11064   -11647.897   0.12943829 
   10100    234.43381    21.742596    30456.009   -10937.592    698.10384   -11635.696    0.1224936 
   10150    226.67472     15.54627    30458.396   -10935.008     674.9986   -11610.007   0.13305121 
   10200    245.09396    49.162155    30467.654   -10907.132    729.84795    -11636.98   0.12790966 
   10250    244.81289    49.764296    30476.136   -10898.688    729.01098   -11627.699   0.13004159 
   10300    243.38956    87.270369    30476.686   -10907.703    724.77255   -11632.476   0.12320628 
   10350    236.94147    14.589267    30478.919   -10916.187    705.57122   -11621.759   0.13223395 
   10400    236.40022    69.657459    30480.937   -10901.063    703.95949   -11605.022   0.12583548 
   10450    233.28323    34.086283     30483.05   -10919.805    694.67763   -11614.483   0.13369028 
   10500    226.87216   -47.279606    30479.744   -10945.484    675.58655    -11621.07   0.12671845 
   10550    222.85922   -62.787856    30477.563   -10947.004     663.6367    -11610.64   0.12701514 
   10600     228.3514   -12.716641    30466.584   -10959.048    679.99149    -11639.04   0.12997964 
   10650    233.78008  -0.13716809    30463.516   -10965.219    696.15714   -11661.376   0.11913319 
   10700     225.5216    1.7122952    30458.094   -10965.922    671.56482   -11637.487   0.12128088 
   10750    228.90908    15.792425    30453.582   -10972.001    681.65215   -11653.653   0.12524012 
   10800    224.00673   -17.591515    30447.633   -10988.763     667.0538   -11655.817   0.12208146 
   10850    224.90797    -47.56259    30441.406   -11017.188    669.73754   -11686.925   0.10918944 
   10900     215.4774   -31.213342    30435.311   -11022.491     641.6549   -11664.146   0.12534305 
   10950    215.24909   -46.168248    30436.711   -11020.949    640.97502   -11661.924   0.11950084 
   11000    222.18661   -18.663551    30433.418   -11021.894    661.63379   -11683.528   0.11578263 
   11050     222.1718   -26.908488     30441.17   -11007.856    661.58969   -11669.446   0.11415923 
   11100    228.13037   -3.2342679    30458.158    -10975.39    679.33329   -11654.723   0.12451837 
   11150    228.39271    13.703413    30459.805    -10972.45     680.1145   -11652.565   0.11992576 
   11200    228.34838    21.858625    30462.681   -10975.164     679.9825   -11655.146   0.11903094 
   11250    219.51364   -4.6124496    30458.312   -11007.117    653.67414   -11660.791   0.11610862 
   11300    224.54557    10.613345    30453.747   -10997.426    668.65838   -11666.085   0.11663685 
   11350    226.31605   -9.0597124    30453.578   -10982.369    673.93056   -11656.299   0.12244693 
   11400    222.57199   -29.944495    30451.008   -10990.225    662.78137   -11653.007   0.12225924 
   11450     225.1114   -20.019668    30450.681   -10972.523     670.3433   -11642.866   0.12309018 
   11500    230.20029   -11.305387     30457.34   -10959.509    685.49714   -11645.006   0.12799885 
   11550    234.97945    22.374919    30464.001   -10941.621    699.72867   -11641.349   0.12954784 
   11600    239.11464    31.452935    30474.579   -10908.255    712.04256   -11620.298   0.11997115 
   11650    238.62973     8.215852    30480.821   -10935.847    710.59857   -11646.446   0.12290409 
   11700    248.29911    56.886502    30479.928   -10897.991    739.39236   -11637.383   0.13002043 
   11750    236.65165   -1.5583363    30483.373   -10885.878     704.7082   -11590.586   0.12915096 
   11800    236.62801    33.762388    30491.464   -10894.868     704.6378   -11599.506   0.12613899 
   11850    226.86087   -20.935108    30484.561   -10918.515    675.55293   -11594.068   0.13627941 
   11900    226.17246   -24.620546    30476.155   -10909.425    673.50297   -11582.928   0.13522069 
   11950    231.59187   -60.432105    30474.073   -10927.007    689.64103   -11616.648   0.12876994 
   12000     230.4793    26.104179    30474.543   -10922.713      686.328   -11609.041   0.12836573 
   12050    238.67114    21.626631    30470.245    -10915.11    710.72189   -11625.831    0.1275376 
   12100    221.51041   -60.489402    30469.207   -10932.266    659.62017   -11591.886    0.1351274 
   12150    224.99231   0.86043124    30473.403    -10934.83    669.98868   -11604.818   0.12569414 
   12200    222.29441   -62.635584    30460.392    -10940.27    661.95479   -11602.224   0.13302207 
   12250    227.50717   -18.923671    30460.718   -10933.982    677.47749   -11611.459     0.131967 
   12300    228.79929   -53.550849    30468.924   -10963.333    681.32522   -11644.659   0.12714931 
   12350    233.84954   -12.633486    30467.696   -10946.397      696.364   -11642.761   0.11962607 
   12400    233.45333     -6.88409    30465.124   -10961.622    695.18414   -11656.806   0.12070751 
   12450    232.90426    71.148425    30464.472    -10948.78    693.54912    -11642.33    0.1220348 
   12500    231.91634   -2.2089416    30470.414   -10946.525    690.60726   -11637.132   0.12759465 
   12550    233.14491    5.0262984    30469.754   -10945.241    694.26572   -11639.507   0.11773145 
   12600    235.08952    22.283304    30463.647   -10928.913    700.05646    -11628.97   0.13374679 
   12650     232.1985   -39.603479    30466.389    -10924.43    691.44749   -11615.878   0.13310261 
   12700    230.76658   -11.258686    30475.165   -10929.133    687.18347   -11616.316    0.1245658 
   12750    230.15378   -15.074981    30469.138   -10951.448    685.35864   -11636.806   0.12486969 
   12800    229.70748    46.077827    30463.764   -10938.837    684.02966   -11622.867   0.13130487 
   12850    223.06327   -51.474909    30460.771   -10953.631    664.24434   -11617.876   0.12918668 
   12900     226.2247   -15.591133    30462.013   -10952.671    673.65852    -11626.33   0.12494972 
   12950    221.75162    16.381692    30451.381   -10961.209    660.33845   -11621.548   0.13132399 
   13000    220.05669    17.330516    30455.377   -10953.529    655.29125   -11608.821   0.12763352 
   13050     221.5409   -25.596175    30453.056   -10954.475    659.71096   -11614.186   0.13343528 
   13100    224.18044    2.8315118    30444.035   -10981.337    667.57106   -11648.908   0.11906185 
   13150    222.08939   -17.953176    30439.992   -10987.018    661.34429   -11648.362   0.12441744 
   13200    222.16099   -47.403714    30438.089   -10996.811    661.55749   -11658.368   0.12566086 
   13250    219.74963   -45.220727    30441.871   -10997.859    654.37688   -11652.236   0.12431926 
   13300    218.53327    34.106436    30439.832   -10983.699    650.75476   -11634.453   0.11741617 
   13350    220.44351     55.21016    30437.434   -10982.635    656.44314   -11639.078   0.12795762 
   13400    223.40575   -30.045742    30439.897   -10991.448    665.26416   -11656.712   0.12254275 
   13450    222.70459    4.8517546    30433.237   -10998.814    663.17625    -11661.99   0.11657644 
   13500    227.12391   -15.167445    30432.637   -10959.675    676.33623   -11636.011   0.12799277 
   13550    228.40784    -3.858915    30444.389   -10972.844    680.15955   -11653.004   0.12628011 
   13600    224.31667    18.050541    30438.318   -10964.147    667.97672   -11632.124   0.12853722 
   13650    226.07063    2.4203694    30443.574   -10958.655    673.19972   -11631.855   0.12314904 
   13700    224.08245   -15.550347    30437.987   -10981.386    667.27928   -11648.665   0.12618349 
   13750    232.04829   -8.5467035     30439.02   -10971.123    691.00019   -11662.123   0.12065452 
   13800    228.19224   -27.814505    30444.263   -10946.913    679.51751   -11626.431   0.12574841 
   13850    228.83444   -59.494811    30445.885   -10954.894     681.4299   -11636.324   0.12487958 
   13900     228.2614   -22.059126    30440.497   -10965.322    679.72348   -11645.046   0.12962135 
   13950    221.52681   -20.302699    30448.673   -10946.206      659.669   -11605.875   0.12333703 
   14000    229.86946   -7.9422794     30450.64   -10921.455    684.51199   -11605.967   0.13453034 
   14050    230.82332      49.2437    30457.553   -10907.396    687.35243   -11594.748   0.12724027 
   14100    227.66516   -20.016692    30455.917   -10931.735    677.94797   -11609.683   0.12481406 
   14150    232.49518 -0.045119649     30448.14   -10932.967    692.33093   -11625.298   0.13218062 
   14200    232.49088    19.094146    30448.172   -10953.753    692.31815   -11646.071   0.11946648 
   14250    224.64752   -3.9424999    30446.788   -10962.805    668.96196   -11631.767   0.12567233 
   14300    223.50475   -30.542538    30441.776   -10956.689    665.55899   -11622.248   0.13568131 
   14350    229.77591    60.078632    30436.986   -10977.827    684.23343    -11662.06   0.11856153 
   14400    226.93541   -44.073731    30435.446   -10991.446     675.7749   -11667.221   0.12194186 
   14450    218.66308   -71.395193    30429.021   -10993.141    651.14132   -11644.283   0.13409828 
   14500    237.05227    46.002148    30428.061   -10973.536    705.90118   -11679.437   0.11623656 
   14550    234.15758    22.955255    30425.283   -10987.478    697.28129   -11684.759   0.12063297 
   14600    227.98656   -28.956452    30426.429   -10986.605    678.90505    -11665.51   0.12174348 
   14650    233.51042    36.028914    30432.235   -10961.502    695.35415   -11656.857    0.1263446 
   14700    231.62712    27.615691    30432.502   -10966.878    689.74601   -11656.624   0.12133152 
   14750    228.64959    31.841372    30436.427   -10951.362    680.87945   -11632.242   0.12505999 
   14800    226.34714    71.396967    30443.132   -10923.515    674.02314   -11597.538   0.13406775 
   14850    236.11496    -7.033964    30441.202   -10942.722    703.11002   -11645.832   0.12772644 
   14900    234.33522    31.107397    30444.942   -10945.863    697.81026   -11643.673   0.11978154 
   14950    225.29281  -0.27494513    30444.218   -10937.922    670.88352   -11608.806   0.13385149 
   15000    225.73898    9.2082168    30443.495   -10973.077    672.21214    -11645.29   0.12560025 
   15050    223.40591    13.442685    30439.548   -10959.715    665.26465    -11624.98   0.12187935 
   15100    225.18413    29.968532    30439.673   -10958.886     670.5599   -11629.446    0.1327104 
   15150    231.45227   -22.888482     30438.88    -10968.51    689.22535   -11657.735    0.1235929 
   15200    225.43778   -8.6634308    30441.013   -10959.457    671.31521   -11630.772   0.12653707 
   15250    229.17124    16.789359     30451.51   -10944.994    682.43282   -11627.427   0.13403449 
   15300     228.6152   -82.687914    30443.672   -10945.676    680.77704   -11626.453   0.13221105 
   15350    225.66477   -46.343818    30444.984   -10972.786    671.99115   -11644.777   0.12057651 
   15400    228.36661    25.581332     30440.64   -10971.518    680.03676   -11651.555   0.12973222 
   15450    230.22367    25.701201    30438.319   -10970.648    685.56678   -11656.215   0.11997513 
   15500    222.67638   -3.3559567    30432.271   -10966.707    663.09224     -11629.8   0.12953686 
   15550    229.39159    33.973315    30441.133   -10949.634    683.08898   -11632.723   0.13141721 
   15600    237.57576    48.562369    30453.607    -10911.59    707.46005    -11619.05   0.12757252 
   15650    232.72214    -12.41672    30471.928   -10899.928    693.00681   -11592.935   0.13419559 
   15700    237.49174      26.3586      30479.4   -10895.612    707.20986   -11602.821   0.13584248 
   15750     240.3992    51.312307    30481.032   -10905.278    715.86778   -11621.146   0.12488315 
   15800    231.31536   -19.717467     30478.66   -10909.703    688.81765   -11598.521   0.13111742 
   15850    234.32848    37.227653    30469.782   -10920.996    697.79021   -11618.786     0.125344 
   15900    237.06235    24.911573    30466.064   -10921.216    705.93121   -11627.147    0.1262662 
   15950    233.90891   -16.142388     30467.39   -10929.642     696.5408   -11626.183   0.13115365 
   16000     235.9972   -36.228194    30467.678   -10935.314    702.75937   -11638.074   0.12151426 
   16050    230.63426   -30.419747    30464.512   -10946.455    686.78946   -11633.245   0.12975138 
   16100    230.44724    14.089153    30457.055   -10951.185    686.23254   -11637.418   0.12503618 
   16150    229.69436    36.992197    30454.979   -10948.866    683.99058   -11632.857   0.11889964 
   16200    234.68578    32.847228    30466.414   -10915.302    698.85419   -11614.156   0.12907009 
   16250    223.92431   -1.4925445    30470.041    -10939.82    666.80834   -11606.629   0.12823673 
   16300    230.10793   -45.388288    30471.309   -10939.479    685.22211   -11624.701   0.12648571 
   16350    226.24325   -13.218783    30466.823   -10954.824    673.71377   -11628.538   0.12964083 
   16400    233.30334    18.894539    30466.237   -10940.528    694.73752   -11635.265   0.11839977 
   16450    225.76046     -53.8219     30466.54    -10961.79    672.27611   -11634.066   0.12887137 
   16500    232.36271     20.26973    30467.629   -10940.051    691.93647   -11631.988   0.12891088 
   16550    229.69567    28.630924    30467.901    -10924.47    683.99447   -11608.465   0.12108592 
   16600    224.13885   -43.949355    30473.838   -10923.414    667.44722   -11590.861   0.13315373 
   16650     233.9146   -23.118783    30476.926   -10908.486    696.55773   -11605.044   0.13648504 
   16700    232.94047   -44.894551     30473.26    -10935.38    693.65693   -11629.037    0.1257485 
   16750    229.78593   -40.127913    30471.248   -10928.279    684.26325   -11612.542   0.13045868 
   16800    235.72597   -50.409071    30463.916   -10945.539     701.9517    -11647.49   0.12664608 
   16850    229.69616    4.9954302    30459.514   -10942.578    683.99593   -11626.574   0.12673897 
   16900    228.87767   -41.937667    30455.617   -10949.416    681.55861   -11630.975   0.12929792 
   16950    231.02751   -28.817472    30455.277     -10961.9    687.96047   -11649.861   0.11775949 
   17000    229.12273    38.759911    30448.122   -10966.873    682.28838   -11649.161    0.1247029 
   17050    225.31091    -12.96456    30444.442   -10981.492    670.93742    -11652.43   0.12368038 
   17100    226.87498   -29.377177    30446.526   -10955.189    675.59496   -11630.784   0.12125338 
   17150    229.11324    6.2019825     30450.31    -10973.53     682.2601   -11655.791   0.11837332 
   17200    224.70283    8.4329728    30444.295   -10988.836    669.12665   -11657.963    0.1224377 
   17250    217.98848   -16.058179    30443.255   -10993.235    649.13248   -11642.367   0.12014722 
   17300    215.56886   -31.245295    30435.465   -11003.786    641.92727   -11645.713   0.12662299 
   17350    218.79267   -7.2793687    30430.289   -11009.874     651.5272   -11661.401   0.11661163 
   17400    221.76375    4.9539777    30430.748   -10998.462    660.37458   -11658.836   0.11980921 
   17450     216.4862   -3.5537451     30429.91   -11011.172    644.65894   -11655.831     0.124253 
   17500    218.16409   -14.302863    30426.946   -10988.557    649.65542   -11638.213    0.1170205 
   17550    221.10196   0.76759419    30440.728   -10981.154    658.40387   -11639.557   0.12252874 
   17600    223.83771    19.817647    30450.519   -10962.541    666.55047   -11629.092   0.12987663 
   17650    224.42022     31.66157    30451.026   -10976.094    668.28509   -11644.379   0.11600201 
   17700    225.66559    36.888496    30449.032   -10967.669     671.9936   -11639.663   0.12423996 
   17750    222.73864    42.476525    30448.269   -10982.982    663.27764    -11646.26     0.129411 
   17800    225.25267    49.522472    30445.837   -10978.509      670.764   -11649.273    0.1153535 
   17850    224.79314    25.202307     30455.11   -10977.513    669.39558   -11646.909   0.12491285 
   17900    237.00407    15.634619    30459.375   -10954.532    705.75764   -11660.289   0.12331567 
   17950    230.89418    63.551037    30460.139   -10947.005    687.56345   -11634.568   0.12295276 
   18000     226.1989    -37.34229    30456.553   -10966.999    673.58168    -11640.58   0.12904613 
   18050    229.96702    4.0492009    30455.642   -10952.959    684.80252   -11637.762   0.12176117 
   18100    229.29854    60.022245    30454.987   -10940.982     682.8119   -11623.794   0.12582133 
   18150    229.20213    25.484902    30457.211   -10929.923    682.52482   -11612.448   0.13496533 
   18200    230.98621   -1.7942522     30459.79   -10959.372    687.83749    -11647.21   0.12413501 
   18250    236.23139      32.0518    30454.426   -10943.806    703.45675   -11647.263     0.124503 
   18300    235.37169    -5.265974    30449.955   -10936.973     700.8967    -11637.87   0.12804611 
   18350    243.51587   -47.545484    30459.325   -10921.696    725.14869   -11646.845     0.127604 
   18400    238.66855  -0.19396017     30456.97   -10935.151    710.71419   -11645.866   0.13044022 
   18450    233.85387    53.278197     30452.93   -10961.334    696.37689   -11657.711   0.12284131 
   18500    232.99088    41.700093    30455.432   -10942.478    693.80704   -11636.285   0.12556639 
   18550    241.31911    59.457634    30458.591   -10937.895    718.60709   -11656.502    0.1269234 
   18600    240.24328    47.997145    30461.109   -10924.771    715.40348   -11640.174   0.12052885 
   18650    229.51791    -69.21129    30469.613   -10912.456    683.46516   -11595.921   0.13721238 
   18700    231.69846   -16.716953     30464.55   -10930.689    689.95846   -11620.648   0.13713748 
   18750    239.14845    16.005658    30460.948   -10938.498    712.14326   -11650.641   0.12002294 
   18800    233.37877   -68.519197    30453.576   -10950.256    694.96211   -11645.218   0.12861188 
   18850    237.58246    72.559828    30451.733   -10950.752    707.47999   -11658.232   0.12237618 
   18900    234.64214    84.365479    30451.234   -10939.812    698.72421   -11638.536    0.1246669 
   18950    234.76007    18.307915    30454.917   -10936.522    699.07541   -11635.598    0.1263415 
   19000    232.05629    18.724886    30458.545   -10934.627    691.02402   -11625.651   0.12764016 
   19050    233.85308   -8.3298763    30459.644   -10934.889    696.37455   -11631.264   0.12629694 
   19100    235.49297   -39.526464    30454.275   -10944.901    701.25785   -11646.158   0.13121628 
   19150    231.80202   -62.339141    30455.866   -10932.607    690.26682   -11622.873   0.12964239 
   19200    231.19499   -31.408121    30454.611   -10950.185    688.45921   -11638.645   0.12782734 
   19250     236.3048     45.33679    30451.273   -10948.209    703.67534   -11651.884   0.12466124 
   19300    234.22861    3.4232239    30456.138   -10926.462    697.49279   -11623.954   0.13013234 
   19350    232.97974    34.977373    30457.633   -10890.811    693.77389   -11584.585   0.13595254 
   19400    232.89021    15.986881    30460.493   -10909.739    693.50728   -11603.246   0.13463909 
   19450    235.16439   -14.234995    30459.022   -10914.578     700.2794   -11614.857   0.13257006 
   19500    237.15537    45.724436    30455.781   -10919.936     706.2082   -11626.144   0.12780587 
   19550    238.71435   -57.204845    30454.298   -10914.469    710.85057   -11625.319   0.12998624 
   19600     235.1819     -88.2818    30448.516   -10925.646    700.33155   -11625.978   0.13037795 
   19650    238.15959    52.592525    30442.137   -10919.293    709.19858   -11628.492   0.13580943 
   19700    232.37264    11.889276    30439.385   -10918.606    691.96605   -11610.572   0.13367606 
   19750      236.444   -54.711767    30442.954   -10933.227    704.08987   -11637.317   0.12979554 
   19800    230.34416    7.0502419    30436.368   -10922.377    685.92559   -11608.303   0.13903022 
   19850    230.60502   -2.4798096    30437.963   -10915.207    686.70237   -11601.909   0.13199119 
   19900    234.38702    8.7934235    30452.563   -10907.253    697.96451   -11605.217   0.13195951 
   19950    225.45285     17.61407    30442.587   -10940.202    671.36008   -11611.562   0.13384503 
   20000    223.20184   -29.274123     30437.86   -10935.403    664.65697    -11600.06   0.13154399 
   20050    227.08939   -19.716685    30437.751   -10951.013    676.23344   -11627.246   0.13014283 
   20100    222.27332   -5.2916011    30438.721   -10958.799    661.89199   -11620.691   0.13067538 
   20150    232.11748     10.53055    30433.045   -10956.875    691.20621   -11648.081   0.12230665 
   20200    224.41952   -61.637921    30432.366   -10971.054      668.283   -11639.337   0.13547261 
   20250    229.65064    36.947101    30434.422    -10954.43    683.86039    -11638.29   0.12716428 
   20300      228.163    41.569015    30440.439   -10957.929    679.43045    -11637.36   0.12330092 
   20350    225.57334    13.165459    30438.822   -10941.043     671.7189   -11612.762   0.13768449 
   20400    237.53943   -7.5373811     30442.38   -10922.547    707.35186   -11629.899   0.13210284 
   20450    235.15496   -60.763531    30443.256   -10931.903    700.25132   -11632.154   0.13086253 
   20500    234.05872   -57.040595    30439.723   -10944.952     696.9869   -11641.939   0.13198513 
   20550    227.36914   -75.074994    30437.884   -10976.033    677.06647     -11653.1   0.12859877 
   20600    221.78754   -6.3067172    30426.634   -10984.233    660.44543   -11644.678   0.12846343 
   20650    227.51052   -6.9428968    30424.301   -10983.279    677.48747   -11660.767   0.12363272 
   20700    224.34313    11.364685    30416.962   -10987.668    668.05553   -11655.723     0.124799 
   20750     229.8313    37.334834    30423.478   -10958.763    684.39837   -11643.162   0.13344417 
   20800     228.3141   -29.026569    30422.003   -10974.198     679.8804   -11654.078   0.12276474 
   20850      233.468    29.502169    30428.753   -10942.532    695.22784    -11637.76   0.13537685 
   20900    234.37534    48.383865    30439.811   -10942.468    697.92974   -11640.398   0.13290579 
   20950    219.67376   -29.025234    30438.658    -10967.95    654.15094   -11622.101   0.12693742 
   21000    229.85736    12.895531    30438.003   -10951.139    684.47598   -11635.615   0.13188976 
   21050    228.97528    15.905566    30441.256    -10965.15    681.84928       -11647   0.13068346 
   21100    228.50716   -15.834419    30439.029    -10962.47     680.4553   -11642.925   0.12525041 
   21150    236.17807    2.1710001     30447.55   -10935.121    703.29796   -11638.419   0.13592459 
   21200    241.18014   -11.058223    30450.256   -10937.383    718.19326   -11655.576   0.12771144 
   21250    239.83432    28.565765    30452.102   -10936.249    714.18565   -11650.435   0.12407455 
   21300    230.36742   -44.621512    30458.888   -10929.414    685.99485   -11615.409   0.14347501 
   21350    232.87429   -74.899846    30458.105   -10927.994    693.45987   -11621.454   0.13490466 
   21400    232.79229    12.005451    30445.903   -10944.914    693.21569    -11638.13   0.12449104 
   21450    235.67107   -19.166045    30458.058   -10945.366    701.78821   -11647.155   0.13201194 
   21500    231.82595   -28.365533    30460.588   -10930.476    690.33809   -11620.814   0.13639417 
   21550    230.09512    5.9234102     30458.09   -10903.351    685.18399   -11588.535   0.13279405 
   21600    229.91871   -34.811898    30456.996   -10897.372    684.65866    -11582.03   0.14196512 
   21650    238.62079    27.442391    30461.495   -10891.607    710.57197   -11602.179   0.13901734 
   21700    232.99614    15.338022    30459.311   -10931.373    693.82272   -11625.195   0.12897228 
   21750     225.7801    32.259315    30451.386   -10957.497    672.33459   -11629.832   0.12557469 
   21800    229.44384    3.5519021    30443.583   -10956.547    683.24459   -11639.791   0.12952508 
   21850    223.15102   -5.9618924    30437.576   -10959.062    664.50563   -11623.567   0.13479117 
   21900    229.23334   -25.722902    30438.693   -10970.128    682.61774   -11652.746   0.12272326 
   21950    227.18509   -46.671629    30445.973   -10963.449     676.5184   -11639.968   0.12795511 
   22000    223.79829   -10.592698    30437.087   -10976.983    666.43309   -11643.416   0.12979747 
   22050    224.78004   -23.795359    30431.456   -10970.403    669.35657   -11639.759   0.12755583 
   22100    226.90278    -58.27204     30434.44    -10961.38    675.67772   -11637.058   0.13353551 
   22150    229.47663    17.271894    30435.357   -10979.575    683.34223   -11662.917   0.11788439 
   22200     219.2124    -38.25996    30426.213   -11006.879    652.77709   -11659.656   0.12339826 
   22250    218.23444   -12.828922    30426.604   -11021.881    649.86489   -11671.746   0.12741213 
   22300    222.05871    67.824959    30428.167   -11000.481    661.25291   -11661.734   0.11958646 
   22350    226.22608    51.407081     30431.64   -10980.163    673.66262   -11653.826   0.11803944 
   22400    225.56249    18.003844    30445.611   -10944.458    671.68659   -11616.145   0.14155553 
   22450    235.08762    73.868374     30455.06   -10948.428    700.05079   -11648.479   0.12175374 
   22500    234.55168    33.730721    30458.957   -10938.696    698.45486   -11637.151   0.12442862 
   22550    224.92489    -11.46021    30453.678   -10938.867    669.78792   -11608.655   0.13719744 
   22600    226.71193    33.628314    30461.058   -10946.595    675.10941   -11621.705   0.12580167 
   22650    226.90944   -5.5795992    30457.485   -10946.684    675.69756   -11622.381   0.12681249 
   22700    225.97102    -69.26284    30451.075   -10980.046    672.90311   -11652.949   0.12656328 
   22750    228.73129    4.7119002    30455.654   -10965.899    681.12273   -11647.022   0.12963541 
   22800    230.56448    49.120418    30462.481   -10952.692    686.58164   -11639.274   0.12042013 
   22850    234.80955    11.566793    30462.439   -10945.457    699.22276    -11644.68   0.12748216 
   22900    231.42638   -15.820448    30460.636   -10965.964    689.14826   -11655.112   0.12239152 
   22950    233.94524   -10.246294    30460.162   -10956.312    696.64898   -11652.961   0.12560035 
   23000    224.18428   -50.408989     30452.87   -10973.627    667.58251   -11641.209   0.12097782 
   23050    224.97953   -76.356746    30455.535   -10974.674    669.95063   -11644.624   0.13021371 
   23100    229.67169    45.331943    30457.892   -10972.688    683.92308   -11656.611   0.11828035 
   23150    229.61008    41.389338    30465.433    -10943.79    683.73962    -11627.53   0.12490629 
   23200      223.589    20.548562     30463.08   -10963.463    665.80987   -11629.273   0.12948873 
   23250    232.85481    70.230031    30470.556   -10930.947    693.40185   -11624.349   0.12085301 
   23300    234.47945    39.853001    30477.115   -10933.126    698.23976   -11631.366   0.12311919 
   23350    231.17116    34.520939    30473.908   -10938.087    688.38825   -11626.475   0.12478785 
   23400    232.81903   -10.717457    30477.421   -10933.456    693.29532   -11626.751   0.12534434 
   23450    229.56575   -35.820305    30484.354   -10949.405    683.60762   -11633.012   0.12016887 
   23500    233.55983   -57.054729    30478.312   -10932.178    695.50129    -11627.68   0.13737941 
   23550    245.80894    47.450822    30484.198   -10913.261    731.97704   -11645.238   0.11822055 
   23600    235.87568   -33.355362    30486.718   -10905.306    702.39749   -11607.704   0.13132393 
   23650    233.59632   -35.179671    30486.558   -10917.826    695.60995   -11613.436   0.12939743 
   23700    232.87226   -4.1459176    30487.566   -10936.914    693.45381   -11630.368    0.1267526 
   23750     234.6156    11.842864    30483.357    -10916.41    698.64521   -11615.055    0.1246109 
   23800    224.75853    2.1137693    30482.438   -10921.597    669.29254   -11590.889     0.135921 
   23850    237.83826   -51.600514    30483.903   -10929.511    708.24173   -11637.752   0.12607442 
   23900    222.17563    2.6232237    30476.341   -10964.094    661.60108   -11625.695   0.12324605 
   23950    216.11967  0.060842992      30466.3   -10967.712    643.56747    -11611.28   0.12835645 
   24000    221.76244   -42.551307    30469.342   -10955.338    660.37066   -11615.709   0.12485297 
   24050    238.72977    103.49351    30477.736    -10945.32    710.89649   -11656.217   0.12263592 
   24100    235.97741    35.927977    30476.594    -10947.19    702.70044   -11649.891   0.11914027 
   24150    232.72906    59.698124    30476.825   -10920.414    693.02741   -11613.442    0.1291312 
   24200    226.73589   -18.467872    30478.591   -10945.828    675.18075   -11621.008   0.12322933 
   24250    217.54879    8.3972219    30472.873   -10963.039    647.82316   -11610.862   0.12977656 
   24300    230.95658   -34.613572    30467.483   -10954.763    687.74925   -11642.512   0.12175404 
   24350    216.39169   -89.041505    30465.365   -10975.951    644.37751   -11620.329   0.12702335 
   24400    222.63709   -52.904872    30463.382   -10962.734    662.97525   -11625.709   0.12677844 
   24450    220.58945   -25.791002    30454.213   -10975.396    656.87772   -11632.273   0.12961765 
   24500    231.94844    35.303193    30451.407   -10971.645    690.70284   -11662.348   0.12086595 
   24550    229.89338    12.157236    30449.284   -10963.008    684.58324   -11647.591   0.12077325 
   24600    221.57125    60.236113    30445.163   -10975.847    659.80135   -11635.648    0.1236213 
   24650    222.89744    77.097709     30449.84   -10983.055     663.7505   -11646.806   0.11516661 
   24700    215.53087   -13.693669    30447.512   -10991.761    641.81412   -11633.575   0.12316797 
   24750    216.37163    5.7686276    30446.895   -10979.503    644.31777    -11623.82   0.12360414 
   24800    220.76122    35.672322    30451.083    -10955.84    657.38922   -11613.229   0.12582726 
   24850     229.0798    -11.02394    30456.536   -10969.354    682.16054   -11651.515   0.11993708 
   24900     226.1817    7.2001181    30449.151   -10977.607    673.53048   -11651.137   0.12559531 
   24950    227.17936   -1.6622396    30451.099   -10985.498    676.50133       -11662   0.11288517 
   25000    227.50119   -14.775279    30446.872   -10986.274    677.45969   -11663.734   0.12195182 
   25050    215.45982  -0.58725019    30448.306   -10987.903    641.60254   -11629.506   0.12656181 
   25100    214.03377   -50.351496    30437.627   -10995.245    637.35603   -11632.601   0.11950027 
   25150    222.19122    32.729057    30437.225   -10996.777    661.64752   -11658.425   0.11761127 
   25200    214.94955   -58.182377    30435.941   -11032.889    640.08305   -11672.972    0.1202841 
   25250    211.43157   -26.223913    30429.451   -11049.368     629.6071   -11678.975   0.11540475 
   25300    219.26649    2.9297808    30431.803   -11021.554    652.93818   -11674.493   0.11283369 
   25350    220.45526    13.963954    30432.538   -10999.629    656.47811   -11656.107   0.12038485 
   25400    222.95881    3.7469453    30435.885   -10983.264    663.93327   -11647.197    0.1190269 
   25450    226.79992    35.590202    30447.076   -10995.131    675.37145   -11670.503   0.11653144 
   25500     229.0204    50.760666     30446.66    -10974.73    681.98366   -11656.714   0.11860659 
   25550    228.26385    3.4976757    30448.468   -10978.998    679.73076   -11658.729   0.12492884 
   25600    232.56138   -3.4533576    30458.231   -10949.997    692.52808   -11642.526   0.12033068 
   25650    235.74135   -24.761013    30466.411   -10932.637    701.99749   -11634.635   0.12571833 
   25700    219.86072    16.617105    30468.406   -10960.081    654.70767   -11614.789   0.12954839 
   25750    229.50956   -37.806072      30463.9   -10964.299    683.44029   -11647.739   0.12667745 
   25800     230.7415    45.636783    30460.762   -10955.124    687.10878   -11642.233   0.12202051 
   25850    232.05122    51.409113    30468.315   -10914.631    691.00892    -11605.64   0.12959014 
   25900     232.3995    33.937858    30473.125   -10901.363    692.04602   -11593.409     0.125901 
   25950    229.52356   -66.380115    30478.823   -10928.124    683.48198   -11611.606   0.13261115 
   26000    222.20157   -22.951912    30469.907   -10952.253    661.67834   -11613.931   0.12673832 
   26050    225.40353    -32.68321     30463.35   -10950.915    671.21321   -11622.128   0.12275859 
   26100    229.52657   -8.4423849    30466.627   -10935.932    683.49095   -11619.422   0.12800555 
   26150    231.11726    15.965879    30467.133   -10950.983    688.22773   -11639.211   0.12277004 
   26200    231.44368    35.090881    30457.925     -10951.6    689.19975     -11640.8   0.11732483 
   26250    225.51685   -32.481709    30463.384   -10986.677    671.55067   -11658.228   0.12127054 
   26300    224.46055    2.6812005    30451.843   -10996.632     668.4052   -11665.037   0.12036996 
   26350    224.99615    39.006162    30445.772   -10963.183    670.00011   -11633.183   0.11857138 
   26400    219.49738   -34.446241    30447.864   -11002.828    653.62571   -11656.454   0.12461651 
   26450    218.10372   -2.3129775    30447.694   -10981.851    649.47564   -11631.327   0.12321644 
   26500     221.1891   -113.72903    30448.023   -10963.995    658.66338   -11622.659    0.1327161 
   26550    227.26957    -28.09114    30460.287       -10952    676.76997    -11628.77   0.12572674 
   26600    232.14838   -3.6819942    30465.581    -10951.89    691.29822   -11643.188    0.1265581 
   26650    236.69161    49.833084     30469.06    -10928.75     704.8272   -11633.577   0.12103849 
   26700    239.46844     44.56736    30474.205   -10932.289    713.09611   -11645.385   0.12264878 
   26750    241.53907    87.611345    30478.799   -10935.869     719.2621   -11655.131   0.11654824 
   26800    228.46042    30.437154     30477.51   -10934.571    680.31612   -11614.887    0.1304512 
   26850    230.52208   -10.749605    30472.457   -10950.193    686.45538   -11636.648   0.11926105 
   26900    222.24424   -21.879299    30469.857   -10946.485    661.80539   -11608.291   0.13155936 
   26950    230.19702    25.406447    30472.174   -10912.086    685.48742   -11597.573   0.13204091 
   27000    224.61649   -13.827213     30477.34   -10934.228    668.86954   -11603.098   0.12633478 
   27050    227.88465   -4.0080449    30477.525   -10946.308    678.60158    -11624.91    0.1283096 
   27100    242.11954    54.930131    30472.517   -10934.214    720.99064   -11655.205   0.11775457 
   27150     234.0718    73.685441    30474.475   -10925.205    697.02584    -11622.23   0.12232774 
   27200     232.0329    2.6546905    30474.172   -10945.171    690.95434   -11636.125   0.12302888 
   27250     228.7688    57.711745    30469.501   -10944.222    681.23441   -11625.456   0.12618396 
   27300    232.81343    51.177961    30475.779   -10918.015    693.27863   -11611.293   0.12219561 
   27350    234.79312     4.634134    30486.251   -10903.241    699.17383   -11602.414   0.13705882 
   27400    237.23219    35.029622    30486.376   -10920.992    706.43696   -11627.429    0.1190775 
   27450    229.29052   -62.734447    30477.519   -10945.599      682.788   -11628.387    0.1288083 
   27500    226.21801   -47.170282    30474.068   -10949.152    673.63862   -11622.791   0.12411495 
   27550     228.0885   -66.070523    30470.434   -10972.092    679.20862   -11651.301    0.1237734 
   27600     231.0971    39.626278    30457.184   -10979.815    688.16771   -11667.983   0.11268661 
   27650    224.35214   -22.259152    30455.656   -10980.719    668.08237   -11648.801   0.12157471 
   27700    235.53406   -19.847324    30456.966   -10951.294    701.38022   -11652.675   0.12324533 
   27750    236.22617    79.915274    30467.805   -10922.823    703.44121   -11626.265   0.12347664 
   27800    232.18954    57.123171    30467.616   -10928.813     691.4208   -11620.234   0.12309349 
   27850     224.8027   -53.420297    30462.482   -10961.705    669.42406    -11631.13   0.12612831 
   27900    213.67605   -53.127284    30453.648   -10978.518     636.2908   -11614.809   0.13106909 
   27950    229.09816    24.896368    30454.193   -10967.048    682.21521   -11649.263   0.11329288 
   28000    222.53012   -20.726959    30458.458   -10968.004    662.65669   -11630.661   0.12957722 
   28050    225.26544    22.852099        30452   -10978.295    670.80202   -11649.097   0.11666761 
   28100    219.66052    26.510876    30449.641   -10989.898    654.11153   -11644.009   0.11905833 
   28150    224.34355    35.467033    30452.213   -10968.583    668.05679    -11636.64   0.11969613 
   28200    226.72414    8.9926658    30450.389   -10969.791    675.14578   -11644.937   0.12374779 
   28250    226.05359   -5.8798097    30440.709   -10972.684    673.14899   -11645.833   0.11631298 
   28300    226.95748    26.706829    30444.779   -10975.442    675.84063   -11651.283   0.12653945 
   28350    229.57525    44.671882    30441.118   -10979.112     683.6359   -11662.748   0.11585985 
   28400    229.84636   -23.405645      30437.4   -10966.665    684.44322   -11651.108   0.12354526 
   28450    232.35905   -31.648494    30442.534   -10967.082    691.92556   -11659.007   0.12696779 
   28500    231.91859   -13.112869    30449.359   -10972.394    690.61395   -11663.008   0.11933287 
   28550    230.57231   -9.6895814    30445.976    -10973.81    686.60497   -11660.415   0.12212617 
   28600    215.18311   -5.8095159    30445.178   -10994.727    640.77856   -11635.506   0.12817097 
   28650    227.05624    18.487618    30442.362   -10970.821     676.1347   -11646.956    0.1244063 
   28700     232.4979    23.269977    30454.686   -10965.052    692.33905   -11657.391   0.11404146 
   28750    224.72351    9.1393712    30450.962   -10962.742    669.18824    -11631.93   0.12820314 
   28800    223.51166   -32.439299    30447.975   -10986.904    665.57956   -11652.483   0.12227859 
   28850    221.35292   -4.0444975    30444.494   -10986.703    659.15121   -11645.854   0.12213256 
   28900    224.02152   -16.265639     30443.88   -10975.013    667.09783   -11642.111    0.1253206 
   28950    216.64146    34.889653    30442.418   -10972.645    645.12127   -11617.766   0.13053617 
   29000    224.80744    -4.725157    30450.511   -10977.151    669.43815    -11646.59   0.11952778 
   29050    223.68184    8.5524582    30454.124   -10948.937    666.08632   -11615.024   0.12858209 
   29100    232.35563    63.870699    30460.395   -10948.666    691.91538   -11640.581   0.12709971 
   29150    230.59889    4.4247465    30465.097   -10946.222    686.68411   -11632.906   0.12481398 
   29200    231.74382    5.6653453    30466.269   -10940.166    690.09352    -11630.26    0.1247458 
   29250    229.97495   -35.734089    30463.583   -10934.462    684.82614   -11619.289   0.13308576 
   29300    232.69376  -0.97812709    30452.141   -10951.657    692.92229    -11644.58   0.12691159 
   29350    225.00215    17.524018    30454.932   -10950.737    670.01798   -11620.755   0.12839811 
   29400    226.67963   -32.734106    30456.477   -10948.648    675.01324   -11623.661   0.13077325 
   29450    228.66363    12.326873     30461.44   -10948.732    680.92125   -11629.654   0.12293752 
   29500    230.01404    41.326989    30466.076   -10943.167    684.94253    -11628.11   0.12607614 
   29550    222.14841   -4.0596795    30467.546   -10968.374    661.52002   -11629.894   0.13043404 
   29600       230.64    -37.78654    30461.838   -10961.559    686.80654   -11648.366   0.12044479 
   29650    234.50491   -2.0889867    30469.195   -10949.007    698.31557   -11647.323   0.12374639 
   29700    227.75028    11.369648    30462.193   -10954.838    678.20145   -11633.039   0.13117835 
   29750    226.85067   -13.419256     30458.03   -10975.188    675.52255   -11650.711   0.11950156 
   29800    213.49152   -90.001162    30447.194   -10998.803     635.7413   -11634.544   0.12653639 
   29850    218.71359     31.51123    30436.332   -11003.479    651.29172   -11654.771   0.12490834 
   29900    224.41083    7.0784004    30444.317   -10982.864    668.25712   -11651.121   0.12088375 
   29950    217.76353   -8.5112787    30440.457   -10987.251    648.46261   -11635.713   0.11997002 
   30000    216.93905   -13.739079    30437.363   -10999.009    646.00743   -11645.017   0.12629255 
   30050    213.27364   -18.369204    30438.161   -11013.317    635.09247    -11648.41   0.12052782 
   30100    222.60139    -44.07795    30434.282   -10999.944    662.86894   -11662.813   0.12074243 
   30150    226.00247   -11.486498    30435.695   -11003.781    672.99676   -11676.778   0.11643369 
   30200    225.05169   -4.3868858    30437.055   -10986.904    670.16549   -11657.069     0.124716 
   30250    224.69267    30.226317    30434.714   -10994.884    669.09639   -11663.981   0.11804105 
   30300    216.85765    36.374946    30434.676   -10992.365    645.76504    -11638.13    0.1254453 
   30350    222.60784   -4.8040023    30437.918   -10995.613    662.88815   -11658.501   0.12228932 
   30400    219.50805    58.736579    30442.308   -10984.461    653.65749   -11638.118   0.12127843 
   30450    218.33282   -9.5192283    30432.669    -11009.03    650.15784   -11659.188   0.12394873 
   30500    211.96847    9.4148288    30428.733   -11045.859     631.2059   -11677.065   0.11602473 
   30550    212.48798    20.770166    30423.586   -11034.165    632.75291   -11666.918   0.11583524 
   30600     222.1135    27.861402    30432.336   -11015.226    661.41609   -11676.643   0.11806248 
   30650    222.00028    46.010328    30425.621   -11002.788    661.07893   -11663.867   0.12091193 
   30700    218.19173   -18.513158    30435.486   -10996.282     649.7377    -11646.02   0.11647365 
   30750    215.45994   -86.303764    30432.578   -11002.679    641.60291   -11644.282   0.12777496 
   30800    213.66329    7.3328108    30434.538   -10987.037     636.2528    -11623.29   0.13038011 
   30850    221.43234   -10.129199    30443.615   -10975.686    659.38771   -11635.073   0.12249989 
   30900    229.20253    36.909058    30453.924   -10945.844      682.526    -11628.37   0.11942913 
   30950    232.77546    44.554096    30457.035   -10944.065    693.16558    -11637.23   0.13323387 
   31000    235.76068    37.915059    30462.198   -10936.249    702.05504   -11638.304   0.12008164 
   31050    230.51226   -39.679051    30459.929   -10944.198    686.42613   -11630.625   0.12632959 
   31100    226.77256   -53.169163    30455.247   -10947.885    675.28996   -11623.175   0.13090671 
   31150    226.79578   -61.003841    30459.328   -10951.778    675.35911   -11627.137   0.12611373 
   31200    217.57322    39.405481    30455.875   -10946.987    647.89589   -11594.883   0.12584501 
   31250    227.14825   -23.442048    30452.415   -10928.676    676.40871   -11605.085   0.13085472 
   31300    230.48935   -16.949746    30454.453   -10936.537    686.35793   -11622.895   0.13182552 
   31350    237.94264    21.226506    30459.222   -10902.056    708.55254   -11610.609   0.13210992 
   31400    245.84168    31.709979    30459.388   -10914.467    732.07456   -11646.542   0.12826016 
   31450    241.64648    50.804145    30455.632   -10939.448    719.58195    -11659.03   0.11571676 
   31500     234.5614     28.07983    30449.425   -10950.461     698.4838   -11648.945   0.12832215 
   31550    236.14742    14.134262    30457.181   -10921.553    703.20671   -11624.759     0.129587 
   31600    225.05525   -11.281474    30448.276   -10952.269    670.17612   -11622.445   0.12982496 
   31650    224.49476   -3.1290684    30440.996   -10945.747    668.50707   -11614.254   0.12170526 
   31700    227.42377   -10.272635    30438.743   -10942.265    677.22916   -11619.494   0.13568222 
   31750    233.27315    28.687596    30438.235    -10928.04    694.64761   -11622.687   0.12992491 
   31800    236.89832    41.261134    30451.653   -10913.265    705.44274   -11618.708   0.12559651 
   31850    219.94345   -47.794565    30454.359    -10944.17    654.95405   -11599.124    0.1324619 
   31900    227.50054   -41.076394    30447.933   -10956.012    677.45775    -11633.47   0.13095698 
   31950    229.93707    63.662598    30446.397   -10950.448    684.71333   -11635.162   0.12141159 
   32000    230.47463    32.702069    30451.012   -10951.328    686.31408   -11637.642   0.12039506 
   32050    220.32563   -13.300258     30443.42   -10960.701    656.09212   -11616.793   0.13130677 
   32100    231.84262   -26.459756      30451.9   -10965.484    690.38772   -11655.872   0.11831447 
   32150    225.71623    5.0053422    30447.465   -10958.821    672.14439   -11630.966   0.12630909 
   32200    223.66795   -39.947073    30443.373   -10976.317    666.04497   -11642.362   0.12515117 
   32250    213.89651   -82.963222    30436.626   -11006.525    636.94729   -11643.472   0.12592804 
   32300    223.90078    8.7145736    30436.432   -10989.597     666.7383   -11656.335   0.12162169 
   32350     224.7381    31.333029    30425.979   -10977.954    669.23169   -11647.186   0.12305151 
   32400    226.45106    8.6541106    30432.676   -10982.788    674.33258   -11657.121   0.11806839 
   32450    225.54339   -11.043522    30434.566   -10993.503    671.62969   -11665.132   0.12514223 
   32500    223.81559     66.22118    30436.527   -10975.916    666.48462   -11642.401   0.12354469 
   32550    215.61533   -45.836424    30438.493   -10960.006    642.06562   -11602.072    0.1293869 
   32600    220.69699   -52.373676     30445.22   -10961.427    657.19795   -11618.625   0.12969678 
   32650    225.47491    19.581967    30450.582   -10936.323    671.42577   -11607.749   0.12871518 
   32700    224.91235    37.319823    30450.289   -10935.784    669.75058   -11605.535   0.12237807 
   32750    222.45827   -29.476561    30452.104    -10969.34    662.44274   -11631.782    0.1243256 
   32800    232.34399      66.2555    30447.288    -10945.55    691.88073   -11637.431   0.12436552 
   32850    230.62031    11.963706    30458.058   -10925.662     686.7479    -11612.41    0.1286111 
   32900    228.12291   -29.764448    30461.032    -10940.25    679.31107   -11619.561    0.1248602 
   32950    227.89845   -33.744481    30455.131    -10958.47    678.64266   -11637.113   0.12746972 
   33000    223.56774   -28.819514    30449.188   -10950.848    665.74654   -11616.594   0.12774373 
   33050    229.90471   -5.7571986    30451.968   -10953.595    684.61697   -11638.212   0.12419283 
   33100    230.96036   -28.101369    30449.553   -10959.954    687.76052   -11647.714    0.1239354 
   33150    232.91417   -15.632336    30444.604   -10967.583    693.57863   -11661.161   0.12257529 
   33200    229.97724   -37.398356    30448.336   -10959.306    684.83295   -11644.139   0.12410823 
   33250     230.1859     42.16141    30450.839   -10968.553    685.45429   -11654.008   0.12322104 
   33300    226.33114    60.312488    30449.461   -10961.519    673.97548   -11635.495   0.11621293 
   33350    224.10268     35.80699    30451.913   -10960.374    667.33952   -11627.713   0.12281507 
   33400    219.62465   -12.393283    30456.262   -10970.368    654.00471   -11624.373   0.12720279 
   33450    221.85634     31.20769    30456.774   -10977.952    660.65029   -11638.602   0.11529191 
   33500     222.4406   -22.234367    30453.405   -10984.023    662.39011   -11646.413   0.12304776 
   33550     220.9923    -1.369325    30457.331   -10964.869    658.07734   -11622.946   0.12472748 
   33600    222.74763    9.5648951    30458.879   -10979.844    663.30441   -11643.149   0.12068128 
   33650    221.01606    17.788562    30454.179   -10994.939    658.14809   -11653.087   0.11495507 
   33700    223.79966    37.300638    30456.222   -10983.436    666.43718   -11649.873   0.12578049 
   33750     226.1886    56.634051    30457.417   -10978.416    673.55102   -11651.967   0.11966011 
   33800    236.92329    16.948637    30458.331   -10959.861    705.51711   -11665.378   0.11733789 
   33850    233.82152    41.994182    30460.516   -10935.438    696.28055   -11631.718   0.12471703 
   33900    228.30194   -47.126118    30460.726   -10923.525    679.84419   -11603.369   0.13465113 
   33950    233.09949   -23.628129     30458.06   -10937.141    694.13046   -11631.271   0.12290239 
   34000    223.90234   -38.361495    30459.608   -10963.577    666.74294    -11630.32   0.12484744 
   34050    225.72656    9.8061352    30454.312   -10980.355    672.17515    -11652.53    0.1194065 
   34100    228.76565    -23.53047    30458.006   -10984.556    681.22504   -11665.781   0.11721078 
   34150    226.14923    21.917846    30450.928   -10966.911    673.43379   -11640.345   0.12269804 
   34200    229.29354    49.836264    30448.471   -10962.467    682.79702   -11645.264   0.11665882 
   34250     223.4854   -25.390052    30446.785   -10958.082    665.50134   -11623.584   0.12682084 
   34300    226.65419   -10.020553    30450.891   -10952.702    674.93746   -11627.639   0.12321472 
   34350    219.87733   -9.9007775    30442.286     -10987.5    654.75714   -11642.258   0.12226727 
   34400    217.95583    5.0950422    30440.162   -10984.025    649.03523    -11633.06   0.11801272 
   34450      221.095   -13.249048    30445.932   -10968.669    658.38314   -11627.052   0.12829146 
   34500    236.15151    2.5798132    30442.341   -10952.111    703.21888    -11655.33   0.12367878 
   34550    226.09709    18.537873     30457.73    -10937.91    673.27851   -11611.189   0.12377233 
   34600     232.3242   -43.620002    30466.024   -10909.628    691.82179    -11601.45   0.13028557 
   34650    228.87813   -77.911634    30465.449   -10926.761       681.56   -11608.321   0.13964067 
   34700    232.61444   -87.703963    30464.381   -10942.039    692.68609   -11634.725   0.12456666 
   34750    235.17629   -42.915054    30454.373   -10963.281    700.31483   -11663.595    0.1240337 
   34800    234.15649    12.131003    30447.676   -10953.118    697.27804   -11650.396   0.13088408 
   34850    241.95334    38.924489    30452.914   -10938.147    720.49574   -11658.643    0.1173281 
   34900    235.38547    26.408545    30451.655   -10941.243    700.93773   -11642.181   0.12990594 
   34950    232.33947    17.889116    30453.816   -10952.025    691.86726   -11643.892   0.12538836 
   35000    228.50376   -4.2770625     30453.73   -10955.562    680.44519   -11636.007   0.12684374 
   35050    227.72972   -46.987915    30455.358   -10953.458    678.14021   -11631.598    0.1232401 
   35100    230.36636    21.998172    30450.851   -10940.892    685.99167   -11626.883   0.12583251 
   35150    233.92069    25.586149    30453.501   -10947.087    696.57588   -11643.663   0.12421666 
   35200    225.20988   -44.976244    30451.929   -10958.694    670.63657    -11629.33   0.12567732 
   35250    228.87252    56.493967    30449.736   -10950.509    681.54328   -11632.052   0.12174767 
   35300     227.2973    15.685096    30454.239   -10934.723    676.85254   -11611.576   0.13089906 
   35350    231.36363    30.857289    30459.621   -10956.725    688.96139   -11645.686   0.11735467 
   35400    232.42244    10.930549    30457.167   -10939.058    692.11433   -11631.172   0.12679867 
   35450    221.72507    25.981772    30456.395   -10970.545    660.25939   -11630.804   0.12363256 
   35500    226.05038     43.49382    30455.652   -10967.442    673.13944   -11640.581   0.11521807 
   35550    225.95656     95.64488    30453.792    -10946.82    672.86005    -11619.68   0.12470643 
   35600    226.16668    39.810815    30459.179   -10946.463    673.48577   -11619.948   0.12434087 
   35650    220.16045    2.3050219    30462.009   -10937.658    655.60022   -11593.258   0.12703962 
   35700    233.64895   -6.7127004    30461.528   -10930.416    695.76668   -11626.182   0.12475365 
   35750    231.39255    53.237942    30462.188   -10932.556    689.04751   -11621.603   0.12538354 
   35800    240.70367    41.782987    30472.923   -10897.965    716.77442   -11614.739   0.12536655 
   35850    238.22844   -16.001335    30473.785   -10894.989    709.40363   -11604.393   0.13053241 
   35900    236.22382    13.337531     30477.22   -10912.172    703.43421   -11615.606   0.12604605 
   35950    225.45707   -34.709466    30470.445   -10939.451    671.37266   -11610.824   0.13066131 
   36000    226.48642    4.8352928    30471.403   -10944.546    674.43787   -11618.984   0.12120194 
   36050    226.95072    8.6396679    30473.895   -10933.496     675.8205   -11609.317   0.13046827 
   36100    228.68931     7.990983    30475.066   -10948.211    680.99771   -11629.209   0.12220657 
   36150    232.60751    15.837848    30474.861   -10948.619    692.66545   -11641.284   0.12358207 
   36200    230.55435   -4.2571532    30466.029   -10962.827    686.55148   -11649.379   0.12061466 
   36250    226.44808     15.70139    30463.811   -10972.444    674.32373   -11646.768   0.12465109 
   36300    220.25273    26.715342    30452.335   -10978.831    655.87501   -11634.706   0.12115366 
   36350     226.1626   -14.253235    30463.233   -10955.388     673.4736   -11628.861   0.12828445 
   36400    219.40061     44.18736    30463.703   -10968.754    653.33754   -11622.091    0.1204646 
   36450    226.21917    14.695966    30470.008   -10943.249    673.64207   -11616.891   0.12539977 
   36500    233.81251    14.689905    30463.715   -10949.126    696.25371    -11645.38   0.12295802 
   36550    230.24616    11.960576    30468.089    -10946.62    685.63376   -11632.254    0.1248225 
   36600     227.8853   -29.893412    30463.251    -10950.65    678.60352   -11629.253   0.12525491 
   36650    234.73863    45.195816     30463.83    -10936.52    699.01154   -11635.531    0.1252319 
   36700    227.05676    33.043584     30468.99   -10941.929    676.13625   -11618.066   0.12806135 
   36750    220.72383   -4.9380485    30476.216   -10970.044    657.27789   -11627.322    0.1176666 
   36800    217.40474   -69.116831    30467.205   -10976.522     647.3942   -11623.916   0.12683421 
   36850    220.09492   0.24668138    30458.296   -10990.279    655.40508   -11645.684   0.11672075 
   36900    222.21428    13.896025    30458.209   -10980.495    661.71618   -11642.211   0.12152318 
   36950     226.5226    19.414934    30461.732   -10966.214    674.54561   -11640.759   0.11809281 
   37000    218.01935   -2.1762429     30465.32   -10986.324     649.2244   -11635.549   0.12414168 
   37050    226.68159     18.03315    30470.603   -10960.394    675.01906   -11635.413   0.11827969 
   37100    221.69368   -2.7319612     30475.26   -10966.481    660.16591   -11626.647   0.12612207 
   37150    232.40234    30.665716    30473.933   -10964.462    692.05449   -11656.517   0.11294938 
   37200    233.41858     22.17796    30472.397   -10965.689    695.08068    -11660.77   0.12073837 
   37250    235.67008     37.15748      30473.4   -10959.669    701.78526   -11661.454   0.11492438 
   37300     228.1027    21.063378    30474.604   -10960.395     679.2509   -11639.646   0.11694441 
   37350    229.96662   -11.648863    30467.453   -10978.614    684.80133   -11663.416   0.12002354 
   37400     231.3461    34.627702    30472.826   -10970.905    688.90919   -11659.814   0.11594647 
[...]
  197300    226.34278    27.230625    30435.248   -10988.127    674.01016   -11662.138   0.12198269 
  197350    221.13107   -11.314686    30437.316   -10986.553    658.49056   -11645.044   0.12647936 
  197400    227.65107    -20.05608    30433.004   -10978.705    677.90601   -11656.611   0.12820003 
  197450    233.84114   -14.650199    30441.526   -10963.677    696.33898   -11660.016   0.12482072 
  197500    229.17331    26.957712    30452.688   -10963.188    682.43899   -11645.627    0.1244693 
  197550    228.68815    12.255253     30455.58   -10928.959    680.99425   -11609.954   0.13654866 
  197600    236.30041    46.236917    30459.277   -10921.923    703.66226   -11625.585   0.12708053 
  197650    233.31436   -36.960979    30460.975     -10952.7    694.77033   -11647.471   0.12539003 
  197700    223.80676   -29.180134    30450.417   -10956.743    666.45832   -11623.202   0.13571651 
  197750    224.37066   -55.137019    30453.105   -10962.578    668.13752   -11630.716    0.1251545 
  197800    218.74627    2.4087921    30447.467   -10966.529    651.38904   -11617.918   0.12929742 
  197850    227.75199    18.372717    30438.415   -10961.887    678.20653   -11640.093   0.12577705 
  197900    221.06519   -31.533771     30443.18   -10973.662    658.29437   -11631.956   0.12643252 
  197950    232.52207    11.842569     30442.99    -10943.96    692.41103   -11636.371   0.12705955 
  198000     229.5875    7.7093563    30442.615   -10962.269    683.67237   -11645.941   0.12529024 
  198050    235.53412   -24.125443    30447.357   -10950.857    701.38039   -11652.237   0.12104649 
  198100    229.30852    22.800597     30450.52   -10950.138     682.8416   -11632.979   0.13637075 
  198150    230.36861    -35.65208     30442.31   -10961.903    685.99837   -11647.901   0.12599043 
  198200    218.69355   -26.403171    30443.815   -10989.508    651.23204    -11640.74   0.12246799 
  198250    216.86926   -65.938828    30429.748   -10995.991    645.79961    -11641.79   0.13107112 
  198300    224.56982    63.996483    30434.041   -11001.108    668.73058   -11669.839    0.1185191 
  198350    220.63187    36.632255    30430.935   -11011.176    657.00403    -11668.18   0.12073805 
  198400    222.41973    1.7424974    30434.079   -11003.327    662.32797   -11665.655   0.12222327 
  198450    225.01133    58.221377    30430.727   -10990.019    670.04533   -11660.064   0.12171772 
  198500    218.45587    35.573139    30436.457   -10975.888    650.52428   -11626.413   0.12528619 
  198550    228.50295   -4.2842416    30439.096   -10977.081    680.44278   -11657.524   0.12471143 
  198600    231.65983    45.206263    30438.623   -10963.769    689.84343   -11653.612   0.12426554 
  198650    218.68138   -27.174425    30436.785   -10996.203    651.19581   -11647.398   0.13062003 
  198700    217.09063   -34.673716    30436.461       -10982    646.45884   -11628.459   0.12541761 
  198750     219.6553    1.7526313    30435.745   -10968.315    654.09599   -11622.411   0.13307976 
  198800    216.23903    -7.063156    30432.902   -10985.824     643.9229   -11629.747   0.13030025 
  198850    224.31918   -7.0068335    30435.982   -10949.165    667.98422   -11617.149   0.13180023 
  198900    224.97485   -53.846116    30444.205   -10956.815    669.93669   -11626.752   0.13557359 
  198950    236.09241    17.298969    30444.453   -10945.565    703.04287   -11648.608   0.12311079 
  199000    224.58861    29.923328    30451.487   -10943.244    668.78652   -11612.031   0.13096583 
  199050    233.93145    5.9957494    30450.994   -10939.848    696.60793   -11636.456   0.13685275 
  199100    234.22178   -5.1559249    30444.831   -10953.211    697.47247   -11650.684   0.12432455 
  199150    230.62255    38.562416    30446.286   -10957.604    686.75458   -11644.359   0.12247987 
  199200    224.54351   -68.805761    30437.793   -10980.428    668.65224   -11649.081   0.13580459 
  199250    232.92643     28.77157    30434.578   -10952.966    693.61514   -11646.581   0.12321038 
  199300    227.79848    37.611103    30456.394   -10917.434    678.34498   -11595.779   0.13353196 
  199350    224.35075   -39.140556    30450.264    -10949.84    668.07821   -11617.919   0.13192338 
  199400    226.38345    9.0273144     30447.32   -10946.897    674.13127   -11621.028   0.12943142 
  199450    220.96422   -29.821194    30455.326   -10959.964    657.99372   -11617.957   0.13152872 
  199500    223.45885   -47.564405    30445.432   -10965.832    665.42231   -11631.254   0.12957098 
  199550    226.25361   -36.726819    30447.573    -10967.12    673.74461   -11640.865   0.12842588 
  199600     227.3536   -54.054666    30448.582   -10944.977    677.02018   -11621.998   0.13137896 
  199650    225.10134   -22.442164    30452.365   -10935.028    670.31334   -11605.341    0.1359529 
  199700    233.28418   -15.640559    30455.952   -10928.458    694.68044   -11623.139   0.12864227 
  199750    232.94216    56.559848    30455.869    -10932.64    693.66196   -11626.302   0.13150567 
  199800    216.98017   -28.835217    30452.537   -10969.144     646.1299   -11615.274    0.1297601 
  199850    226.81419    8.5352888     30455.44   -10970.072    675.41391   -11645.486   0.12376523 
  199900    229.21128 -0.051510314    30446.905   -10958.886    682.55204   -11641.438    0.1268678 
  199950    221.76885 -0.045434238    30451.824   -10959.352    660.38976   -11619.741   0.12910311 
  200000    224.46384   -2.4243423    30449.347   -10957.043    668.41499   -11625.458   0.13136864 
Loop time of 73.4991 on 10 procs for 200000 steps with 1000 atoms

Performance: 1175.525 ns/day, 0.020 hours/ns, 2721.123 timesteps/s
98.8% CPU use with 10 MPI tasks x no OpenMP threads

MPI task timing breakdown:
Section |  min time  |  avg time  |  max time  |%varavg| %total
---------------------------------------------------------------
Pair    | 52.017     | 54.253     | 55.787     |  16.6 | 73.81
Neigh   | 1.7625     | 1.8765     | 1.932      |   3.5 |  2.55
Comm    | 12.033     | 13.604     | 16.056     |  35.1 | 18.51
Output  | 0.1383     | 0.14991    | 0.24856    |   8.5 |  0.20
Modify  | 2.6122     | 2.7211     | 2.7987     |   2.8 |  3.70
Other   |            | 0.8944     |            |       |  1.22

Nlocal:    100 ave 110 max 95 min
Histogram: 4 1 0 0 3 0 0 0 1 1
Nghost:    692.6 ave 701 max 680 min
Histogram: 2 0 0 0 2 1 0 1 1 3
Neighs:    0 ave 0 max 0 min
Histogram: 10 0 0 0 0 0 0 0 0 0
FullNghs:  3172 ave 3501 max 2986 min
Histogram: 2 3 0 0 3 0 0 0 1 1

Total # of neighbors = 31720
Ave neighs/atom = 31.72
Neighbor list builds = 9490
Dangerous builds = 0
write_restart   eq.${NAME}-p1t${TEMP}.rst
write_restart   eq.ice_steinhardt_param-p1t${TEMP}.rst
write_restart   eq.ice_steinhardt_param-p1t228.rst

undump          1

reset_timestep  0

unfix           2
unfix           3
unfix           4


# compute mean square displacement
compute 		2 all orientorder/atom
compute			3 all msd


thermo	    	50
thermo_style	custom step temp press vol etotal ke pe c_3[4]

#dump		    1 all xtc 2000 prod.${NAME}-p1t${TEMP}.xtc
dump		    1 all custom 200 dump.${NAME} id type x y z vx vy vz fx fy fz c_2[*]
dump		    1 all custom 200 dump.ice_steinhardt_param id type x y z vx vy vz fx fy fz c_2[*]

# Set fixes

fix             2 all nph iso ${PRES} ${PRES} ${PCOUPL}
fix             2 all nph iso 1 ${PRES} ${PCOUPL}
fix             2 all nph iso 1 1 ${PCOUPL}
fix             2 all nph iso 1 1 10000.0
fix             3 all temp/csvr ${TEMP} ${TEMP} ${TCOUPL} 837492
fix             3 all temp/csvr 228 ${TEMP} ${TCOUPL} 837492
fix             3 all temp/csvr 228 228 ${TCOUPL} 837492
fix             3 all temp/csvr 228 228 5000.0 837492

# Run 5 ns simulation p = 1 atm, T = 300 K

#run	            2000000
run					5000
Neighbor list info ...
  update every 1 steps, delay 0 steps, check yes
  max neighbors/atom: 2000, page size: 100000
  master list distance cutoff = 6.3065
  ghost atom cutoff = 6.3065
  binsize = 3.15325, bins = 10 10 10
  2 neighbor lists, perpetual/occasional/extra = 1 1 0
  (1) pair sw, perpetual
      attributes: full, newton on
      pair build: full/bin/atomonly
      stencil: full/bin/3d
      bin: standard
  (2) compute orientorder/atom, occasional, copy from (1)
      attributes: full, newton on
      pair build: copy
      stencil: none
      bin: none
Per MPI rank memory allocation (min/avg/max) = 6.119 | 6.12 | 6.12 Mbytes
Step Temp Press Volume TotEng KinEng PotEng c_3[4] 
       0    224.46384   -2.3568564    30449.347   -10957.043    668.41499   -11625.458            0 
      50    224.01165    60.649426    30449.104   -10950.988    667.06844   -11618.056   0.32821645 
     100    220.42192    16.207651    30448.348   -10956.111    656.37883    -11612.49   0.22901466 
     150    228.50376   -30.935635    30446.189   -10953.676    680.44518   -11634.121   0.27914829 
     200    225.65104    4.6009693    30443.086   -10956.915    671.95028   -11628.865   0.24086337 
     250    234.23828   -2.5453487     30440.16   -10959.666    697.52161   -11657.188   0.22577917 
     300    233.11566    57.453787    30437.663   -10953.862    694.17864    -11648.04   0.20757346 
     350    233.72284    16.449656    30436.464   -10946.861    695.98672   -11642.848   0.23617934 
     400    228.66981    18.953765    30436.664   -10956.774    680.93966   -11637.714   0.26150874 
     450    224.91026    44.548157    30438.616   -10959.409    669.74436   -11629.153   0.23505445 
     500    230.58596    59.449091    30441.565   -10963.708    686.64561   -11650.354   0.28054817 
     550    227.78474   -3.8570476    30446.483   -10965.488    678.30406   -11643.792   0.22556485 
     600    218.37302   -75.872521    30451.933   -10965.583    650.27757   -11615.861   0.22056627 
     650    219.85242    17.162123    30455.575    -10973.02    654.68297   -11627.703    0.2106172 
     700    223.27595   -78.082492    30457.779   -10966.851    664.87765   -11631.729   0.26563361 
     750    217.99789   -137.48873    30457.681   -10971.272    649.16049   -11620.432   0.29277543 
     800    224.15542   -73.287523    30455.933   -10972.909    667.49657   -11640.406     0.228046 
     850    227.15812   -36.799218    30453.719   -10980.321    676.43808   -11656.759   0.22704608 
     900    230.30124   -28.932779    30450.779   -10982.988    685.79776   -11668.786   0.21039047 
     950    226.84189    33.730847    30447.541   -10988.179    675.49642   -11663.675   0.26698912 
    1000    236.08533    62.270599    30444.628   -10980.564    703.02181   -11683.586   0.21891761 
    1050    229.21779    42.013563    30441.822   -10984.795    682.57143   -11667.367   0.25167876 
    1100    219.95353    52.630246    30439.944   -10981.891    654.98404   -11636.875    0.2302756 
    1150    219.17633    68.406871    30440.855   -10976.215    652.66968   -11628.884   0.23144774 
    1200    224.69651    96.094668    30444.458   -10979.528    669.10784   -11648.636   0.24709138 
    1250    220.84542   -49.468838    30450.519   -10983.484    657.63995   -11641.124   0.22973628 
    1300    217.67554   0.16668831    30456.522   -10990.749     648.2006    -11638.95   0.21753899 
    1350    225.18594   -5.4711904    30462.174   -10983.051    670.56528   -11653.616    0.2431692 
    1400    226.64813    36.013293    30467.759   -10979.334    674.91943   -11654.254   0.27508545 
    1450    226.52605    8.9792255    30472.432   -10985.987    674.55588   -11660.542   0.21007672 
    1500    225.25414   -81.413911    30475.067    -10994.69    670.76835   -11665.458   0.20669846 
    1550    225.22113   -83.235936    30473.373   -10986.197    670.67007   -11656.867   0.28571502 
    1600    230.38078   -33.740691     30466.09   -10988.921    686.03461   -11674.956   0.20736806 
    1650    232.34803    23.997157    30455.264   -10993.171    691.89276   -11685.064   0.22095119 
    1700    215.21362    -31.45569    30441.957   -10992.998     640.8694   -11633.868   0.25506814 
    1750    224.03192   -28.361417    30426.524   -10984.269    667.12881   -11651.398   0.24401643 
    1800    218.81145    1.4584581    30411.488   -10986.599    651.58314   -11638.182   0.25940539 
    1850    215.56548    42.781545    30398.487   -10979.865    641.91719   -11621.782   0.26866678 
    1900    221.08788    52.828134    30389.889   -10981.286    658.36195   -11639.648   0.17272389 
    1950    219.81044    101.91944    30386.996   -10980.207    654.55795   -11634.765   0.24626631 
    2000    226.59034    88.430751    30391.333   -10968.371    674.74733   -11643.119    0.2755746 
    2050    222.19319    78.426727    30403.519   -10971.429    661.65337   -11633.082   0.26302542 
    2100    220.10192    24.030018     30421.07    -10972.07    655.42594   -11627.495   0.24951211 
    2150    222.03375    22.556509     30441.42    -10962.46    661.17858   -11623.639   0.21497154 
    2200    224.35288   -29.389635    30462.559   -10959.106    668.08458    -11627.19   0.22812471 
    2250    220.86568   -72.187266    30481.206   -10957.754    657.70027   -11615.454   0.24185235 
    2300    227.05227   -128.18549    30495.122    -10960.47     676.1229   -11636.593   0.24752689 
    2350    230.30368   -153.92561    30501.821   -10953.411    685.80503   -11639.216   0.26866022 
    2400    226.87606   -157.84178    30498.918   -10963.429    675.59817   -11639.027    0.2637881 
    2450    226.85996   -124.28841     30485.84       -10972    675.55023    -11647.55   0.21931182 
    2500    227.86534   -76.890283     30463.69   -10978.727    678.54408   -11657.271   0.21511152 
    2550     226.2026   0.32276346     30434.23   -10965.613    673.59271   -11639.206   0.22872593 
    2600    226.70994     106.5811    30403.167   -10965.364    675.10348   -11640.468   0.24550638 
    2650    236.87894    174.04346    30374.249   -10975.355    705.38503    -11680.74   0.30122407 
    2700    232.94523    294.35885    30349.919   -10966.329    693.67112       -11660   0.24999205 
    2750     227.6915    247.98024    30336.732   -10965.361    678.02642   -11643.387    0.2002033 
    2800    232.15147    211.68479     30336.34   -10970.774    691.30744   -11662.081   0.20387793 
    2850    231.79812      226.974    30348.414   -10967.079    690.25523   -11657.335   0.27675423 
    2900    227.16567    156.93538    30372.689   -10973.778    676.46058   -11650.239   0.25900213 
    2950    228.82696    10.794809    30406.579   -10975.457    681.40761   -11656.864   0.25789535 
    3000    228.57535    -31.40727    30445.118   -10976.981    680.65836   -11657.639    0.2330157 
    3050     218.6573   -132.64856    30484.286   -10971.515    651.12409   -11622.639   0.24348501 
    3100    224.42603   -215.47184    30518.061   -10963.027    668.30241   -11631.329   0.23467698 
    3150    228.49972   -229.04515    30541.596   -10957.653    680.43313   -11638.087   0.23938506 
    3200     235.0942   -261.31999    30551.423   -10951.273    700.07038   -11651.343   0.25135397 
    3250    227.51388   -265.93058    30545.326   -10954.284    677.49749   -11631.781   0.26148309 
    3300    222.03509   -298.91835    30524.454   -10952.614    661.18257   -11613.797   0.27736304 
    3350    228.28498   -132.54004    30489.754   -10966.138     679.7937   -11645.932   0.21586907 
    3400    229.07074    3.9415395    30446.399   -10971.046    682.13354   -11653.179   0.21224009 
    3450    225.12247    40.806187    30400.612   -10984.738    670.37629   -11655.114   0.26248808 
    3500    226.07656    184.15266    30356.423   -10985.591    673.21739   -11658.809   0.25824006 
    3550    224.99674    253.17645    30320.632   -10989.427    670.00188   -11659.429     0.246131 
    3600    224.38654    341.35829    30299.507   -10990.728     668.1848   -11658.913   0.23657099 
    3650    229.14318    418.02932    30296.459   -10979.167    682.34927   -11661.516   0.22608304 
    3700    226.65563    356.20259    30313.915   -10973.919    674.94175   -11648.861   0.26173579 
    3750    218.66435    242.92511    30350.398   -10960.699     651.1451   -11611.844   0.25283019 
    3800    230.59829     140.8143    30402.132   -10960.552    686.68233   -11647.234   0.22041299 
    3850    227.08286    8.7561898    30462.506   -10952.118    676.21399   -11628.332   0.24672415 
    3900    227.15727   -203.49038    30524.122   -10949.615    676.43555   -11626.051   0.24906385 
    3950    228.00433   -384.18578    30578.672   -10950.992    678.95797    -11629.95    0.2657849 
    4000    229.37472   -480.95738    30616.502   -10953.393    683.03875   -11636.431   0.26314869 
    4050    229.45021   -436.49873    30630.851    -10955.56    683.26353   -11638.823    0.2070133 
    4100    234.88647   -404.71341    30619.635   -10953.008    699.45181    -11652.46   0.23275382 
    4150    225.81851   -333.45568    30583.365   -10962.187    672.44895   -11634.636    0.2709147 
    4200    221.22647   -179.36469    30526.069   -10959.921    658.77464   -11618.696   0.24494784 
    4250    228.62497   -24.458019    30456.139     -10952.5    680.80613   -11633.306   0.24553086 
    4300    226.77429    227.73097    30383.231    -10959.13     675.2951   -11634.426   0.25026549 
    4350    226.81635    378.46204    30317.833   -10956.492    675.42037   -11631.913   0.26013715 
    4400     228.2319    538.75425    30269.874   -10957.052    679.63562   -11636.688    0.2114516 
    4450    229.27904    560.97832    30247.287   -10953.995    682.75383   -11636.748   0.23328826 
    4500    230.16914     457.1313    30253.346   -10953.376     685.4044    -11638.78   0.26519533 
    4550    226.14049    398.82094    30287.812   -10948.882    673.40775    -11622.29   0.28387801 
    4600    230.40004    291.58695    30348.162    -10948.09    686.09197   -11634.182   0.25631694 
    4650     229.1011    89.707844    30427.737   -10944.422    682.22396   -11626.646   0.21513978 
    4700    227.53089   -157.80652    30515.161   -10946.874    677.54813   -11624.422   0.21147269 
    4750     229.5028   -358.54974    30598.134   -10949.619    683.42014   -11633.039   0.25530123 
    4800      228.188   -483.93245    30665.125    -10940.95     679.5049   -11620.455   0.28634806 
    4850    226.24895   -663.63086     30705.52   -10935.837    673.73073   -11609.568   0.26316016 
    4900    217.28264   -660.83662    30711.581   -10938.273    647.03061   -11585.304   0.24415555 
    4950    228.77867   -614.06741    30680.997   -10936.646    681.26382    -11617.91   0.23203731 
    5000    229.60137   -398.65092    30615.777   -10940.468    683.71367   -11624.181   0.23537249 
Loop time of 1.89309 on 10 procs for 5000 steps with 1000 atoms

Performance: 1140.994 ns/day, 0.021 hours/ns, 2641.190 timesteps/s
98.9% CPU use with 10 MPI tasks x no OpenMP threads

MPI task timing breakdown:
Section |  min time  |  avg time  |  max time  |%varavg| %total
---------------------------------------------------------------
Pair    | 1.2583     | 1.3635     | 1.4282     |   4.5 | 72.02
Neigh   | 0.044671   | 0.048801   | 0.051069   |   1.0 |  2.58
Comm    | 0.26566    | 0.33229    | 0.44153    |   9.6 | 17.55
Output  | 0.024435   | 0.024895   | 0.02856    |   0.8 |  1.32
Modify  | 0.099731   | 0.10432    | 0.10689    |   0.6 |  5.51
Other   |            | 0.01932    |            |       |  1.02

Nlocal:    100 ave 110 max 92 min
Histogram: 2 0 1 1 1 1 3 0 0 1
Nghost:    679.4 ave 702 max 658 min
Histogram: 1 1 1 0 1 4 0 0 1 1
Neighs:    0 ave 0 max 0 min
Histogram: 10 0 0 0 0 0 0 0 0 0
FullNghs:  3150.8 ave 3482 max 2891 min
Histogram: 2 1 0 1 2 0 3 0 0 1

Total # of neighbors = 31508
Ave neighs/atom = 31.508
Neighbor list builds = 243
Dangerous builds = 0
write_data      data.ice_box
write_restart   prod.${NAME}-p1t${TEMP}.rst
write_restart   prod.ice_steinhardt_param-p1t${TEMP}.rst
write_restart   prod.ice_steinhardt_param-p1t228.rst




Total wall time: 0:01:15
