LAMMPS data file via write_data, version 12 Dec 2018, timestep = 50000

1529 atoms
1 atom types

-6.0873928465454696e-03 4.9698121928809286e+01 xlo xhi
-3.8316186613904790e-03 3.1281741824856990e+01 ylo yhi
-3.8316186613904790e-03 3.1281741824856990e+01 zlo zhi

Masses

1 18.015

Atoms # atomic

287 1 2.7841366920838131e+00 3.3221358707037829e-01 3.3720236903145047e+00 0 1 1
286 1 1.4267778455960345e+00 2.1446934894754732e+00 1.5092133177420177e+00 0 1 1
290 1 4.5497239107012950e+00 1.7332427433071178e+00 4.7158722204575039e+00 0 1 1
293 1 7.5821584117162564e+00 1.6093784766684371e+00 1.9418889141151074e+00 0 1 1
292 1 9.1444815536274238e+00 3.0647108288439706e-01 3.5465578386542442e+00 0 1 1
294 1 3.2367349384958638e-01 3.3047991584004435e+00 3.4101473671833502e+00 0 1 1
281 1 6.1561124330662702e+00 3.3029518097440764e+00 3.2448235596469517e+00 0 1 1
278 1 4.8616979343299587e+00 5.0781479939104468e+00 1.9977823697024570e+00 0 1 1
275 1 3.2551265007185606e+00 6.4230557187155970e+00 3.4773358125239082e+00 0 0 1
185 1 1.7243634561926884e+00 8.0611413056061370e+00 2.1394080032226555e+00 0 0 1
205 1 9.2148757631264075e+00 6.7507943697429189e+00 3.6846245052726276e+00 0 0 1
189 1 8.1273770950554312e+00 8.2303880582857616e+00 2.0262614537283037e+00 0 0 1
193 1 1.3452570453852306e+00 1.1374619575628651e+01 4.6178546083142917e+00 0 0 1
194 1 3.0406855931661512e+00 1.2864959357258822e+01 3.1702427615846118e+00 0 0 1
188 1 6.4249469963918884e+00 9.7523507559437377e+00 3.1217487074393833e+00 0 0 1
195 1 4.7337045120151489e+00 1.1353029531672197e+01 1.8571394406693797e+00 0 0 1
198 1 9.4818595759553812e+00 1.2797012428354391e+01 3.3339632810333004e+00 0 0 1
200 1 1.2225743365856321e+00 1.4606246247038859e+01 2.0937322355188983e+00 0 0 1
203 1 6.1886816987644337e+00 1.5704046795443997e+01 3.5176396052135845e+00 0 0 1
199 1 7.6441094701210321e+00 1.4486495365231841e+01 1.8721242612298596e+00 0 0 1
208 1 3.3266643714454394e+00 1.9241871146014290e+01 3.8446870175575700e+00 0 0 1
202 1 4.5816394311645015e+00 1.7563630059632850e+01 2.2271814451721319e+00 0 0 1
213 1 5.9425853934714201e+00 1.9285338329392467e+01 9.5251916340314968e-01 0 0 1
206 1 9.1398984353475381e+00 1.8582190790473586e+01 3.4798884703469990e+00 0 0 1
209 1 1.6933451125158598e+00 2.0509242187233685e+01 1.5510454333909558e+00 0 0 1
186 1 1.8716452169001252e-01 2.1976650545793014e+01 3.3444263744997462e+00 0 0 1
211 1 6.0691024454065197e+00 2.2006855619677090e+01 3.6883217491095861e+00 0 0 1
207 1 7.7138635548750161e+00 2.0578645855631255e+01 2.3346529770167677e+00 0 0 1
270 1 2.7367290257435584e+00 2.5369544658295521e+01 3.4402165957055093e+00 0 0 1
279 1 1.2316711854741771e+00 2.6955255730503506e+01 1.8179977867665327e+00 0 0 1
271 1 4.6271923231446292e+00 2.3706592015920062e+01 2.0896008142328046e+00 0 0 1
274 1 9.3422847771687980e+00 2.5091730773650976e+01 3.6152371567929631e+00 0 0 1
284 1 7.6354013487046197e+00 2.6662733633833945e+01 2.1714625168519022e+00 0 0 1
283 1 5.8796156702469071e+00 2.8052605931522347e+01 3.3796652123539728e+00 0 0 1
289 1 4.4900200915467989e+00 2.9880011709626441e+01 1.8785737521572261e+00 0 0 1
312 1 1.6952997952301327e+00 2.0248475688000012e+00 8.1861401385724193e+00 0 1 1
85 1 9.8071308237140808e+00 2.8720782613766570e+01 1.3201168117273010e+01 0 0 0
277 1 6.0088046574589562e+00 3.6464591625326045e-02 6.6799282975019851e+00 0 1 1
318 1 7.7087656446822024e+00 1.7680861168870257e+00 8.2785066153808042e+00 0 1 1
295 1 1.7310638103180649e+00 4.9992277831573899e+00 5.0260633990699235e+00 0 1 1
296 1 3.1351846391468623e+00 3.2742247117848535e+00 6.5242934283121823e+00 0 1 1
323 1 4.6051875921974261e+00 4.9683000719064916e+00 8.2024356291542642e+00 0 1 1
285 1 7.6395333141989443e+00 4.8591880827132359e+00 4.9421197215775052e+00 0 1 1
298 1 9.2370157861043385e+00 3.4597156980469754e+00 6.4866048547847557e+00 0 1 1
219 1 1.8057881515430831e+00 8.0830527643249077e+00 7.9539617136808820e+00 0 0 1
216 1 3.2770669467487479e+00 9.6081112157694779e+00 5.3245466096234373e-01 0 0 1
187 1 4.7660913714064543e+00 8.0251264104693742e+00 5.2246238829117360e+00 0 0 1
313 1 6.3825137178834730e+00 6.4849547586002574e+00 6.8765318429641340e+00 0 0 1
191 1 9.3959035845614771e+00 9.6721145491112583e+00 6.6204216854107418e+00 0 0 1
223 1 7.9187920982646931e+00 8.5911125224457106e+00 8.3366516340693604e+00 0 0 1
212 1 3.0561243474334407e+00 9.8926340136082320e+00 6.2052455153405726e+00 0 0 1
215 1 6.5673138298700460e+00 1.2556791411970204e+01 6.6337062468554633e+00 0 0 1
229 1 4.7230815980097827e+00 1.1170432990618433e+01 8.2533187107266386e+00 0 0 1
197 1 8.0758654797831060e+00 1.1207903406610573e+01 4.9161249912984175e+00 0 0 1
228 1 1.3331476927910093e+00 1.4114632666067644e+01 8.2493649506497455e+00 0 0 1
196 1 4.7823522246861865e+00 1.3939775375092619e+01 4.9264302019408950e+00 0 0 1
214 1 3.3697064758755650e+00 1.5867824227617463e+01 6.6055083303635698e+00 0 0 1
237 1 8.0900044286110617e+00 1.4122517012380960e+01 8.0529792083968168e+00 0 0 1
190 1 9.7405077284726183e+00 1.5850926760346230e+01 6.6296219277761450e+00 0 0 1
201 1 1.6747139651861851e+00 1.7506565511382338e+01 5.3745360122898154e+00 0 0 1
248 1 2.1319381095465215e-01 1.9060929714524793e+01 7.1807606246365925e+00 0 0 1
235 1 5.0001546187514680e+00 1.7083633420814643e+01 8.1992587986160199e+00 0 0 1
251 1 6.2577791181391067e+00 1.8902346545946809e+01 6.7153066815033160e+00 0 0 1
204 1 7.7140431291587515e+00 1.7235779445467969e+01 5.1475094714324561e+00 0 0 1
252 1 2.7958745354397481e+00 2.2194299604118683e+01 7.0019021166826256e+00 0 0 1
210 1 4.6275350641553539e+00 2.0671531228199388e+01 5.5110715442816867e+00 0 0 1
273 1 7.7317969683373784e+00 2.3443108822979813e+01 4.9106882898664832e+00 0 0 1
243 1 7.8550378284974052e+00 2.0444176555321068e+01 8.2041328432102798e+00 0 0 1
192 1 9.3026026973810865e+00 2.2030527752487618e+01 6.5695322480749443e+00 0 0 1
269 1 1.4956941188354129e+00 2.3716637644800063e+01 5.0795656116517884e+00 0 0 1
305 1 1.5363417354073590e+00 2.6613777156766361e+01 8.5704406095839829e+00 0 0 1
93 1 1.3417574818107982e+00 2.7119359646611883e+01 1.4712802247262681e+01 0 0 0
302 1 4.8608466905436920e+00 2.3806737894621463e+01 8.5558864720341266e+00 0 0 1
282 1 4.4470978346830643e+00 2.6701867242702399e+01 5.4601037875156102e+00 0 0 1
301 1 6.5896877621823613e+00 2.5214887275534764e+01 6.9468332073807577e+00 0 0 1
280 1 1.6264419858563215e+00 2.9860911637995695e+01 5.1191371516289426e+00 0 0 1
306 1 2.9932507496788903e+00 2.8236734013040483e+01 6.9297155361040206e+00 0 0 1
314 1 4.5751790789507387e+00 3.0028416130313811e+01 8.4456539538831894e+00 0 0 1
291 1 7.4916236933498563e+00 2.9708395946753630e+01 5.1617725934215422e+00 0 0 1
309 1 8.0310339180747405e+00 2.7141811164509438e+01 8.3386545859327601e+00 0 0 1
297 1 9.2876710623814365e+00 2.8502530393179853e+01 6.4223671536818152e+00 0 0 1
311 1 3.0451083535883008e+00 5.0867561500388592e-01 1.0002092154437333e+01 0 1 1
315 1 4.7687329842075057e+00 2.0374895864132281e+00 1.1303873548731699e+01 0 1 1
317 1 9.2674054318853880e+00 2.4627426489496934e-01 9.5569316723868543e+00 0 1 1
320 1 3.5873775594882618e-01 3.7319417592521269e+00 9.5964191223085447e+00 0 1 1
319 1 1.4537625416950655e+00 5.0734529401534321e+00 1.1579861443822764e+01 0 1 1
322 1 6.2213603874037506e+00 3.2248012169406053e+00 9.6071838688428244e+00 0 1 1
325 1 9.2830292369598695e+00 3.7052917290212863e+00 1.2509058108653857e+01 0 1 0
321 1 7.8748216465911218e+00 5.2783627504351802e+00 1.0831624477908985e+01 0 1 1
225 1 3.2630802524354485e+00 6.6813005771067226e+00 9.8034227038013064e+00 0 0 1
224 1 2.2002472022306191e-01 9.4676301458166066e+00 9.7002202670147355e+00 0 0 1
220 1 5.0129964457250349e+00 8.0686064116614933e+00 1.1746681326919186e+01 0 0 1
222 1 9.4329248104833976e+00 6.8592792964026268e+00 9.3609825768841599e+00 0 0 1
226 1 1.4214849353120838e+00 1.1325766265860928e+01 1.1438888737958642e+01 0 0 1
227 1 3.3038711562110459e+00 1.2864459532079376e+01 9.8442002957605901e+00 0 0 1
221 1 6.1171010706086788e+00 9.8614813202486271e+00 9.8833888926999336e+00 0 0 1
232 1 9.7437993279819484e+00 1.2847871276251094e+01 9.3667153265105014e+00 0 0 1
231 1 7.9023193681466637e+00 1.1305648785337786e+01 1.0987189103393128e+01 0 0 1
236 1 6.6076695603930204e+00 1.5628040029884561e+01 9.7792861434146428e+00 0 0 1
230 1 5.2874957961719344e+00 1.4627989245377192e+01 1.1643853441154025e+01 0 0 1
234 1 1.7657616835457521e+00 1.7214448410635931e+01 1.1492390989128308e+01 0 0 1
240 1 3.5461720932814349e+00 1.9028011452750068e+01 1.0122017571024497e+01 0 0 1
238 1 8.3074465682025416e+00 1.7470273259264609e+01 1.1307204660395644e+01 0 0 1
244 1 9.5994769423850244e+00 1.8882351394837279e+01 9.7569732073456095e+00 0 0 1
239 1 1.8040353746301827e+00 2.0443005600026417e+01 8.8047770053239578e+00 0 0 1
245 1 2.8839974571097216e-01 2.1909190152279258e+01 1.0129784449005143e+01 0 0 1
241 1 4.6257084927295162e+00 2.0812685537194540e+01 1.1615177985594869e+01 0 0 1
249 1 6.5959779378986241e+00 2.2092579391649714e+01 1.0045486129434110e+01 0 0 1
299 1 1.5872147731908568e+00 2.3630734400295356e+01 1.1780959692567391e+01 0 0 1
300 1 3.1892628770405409e+00 2.5285507949730732e+01 1.0103162409973939e+01 0 0 1
307 1 4.7810507437247951e+00 2.7045501252585698e+01 1.1422889897820760e+01 0 0 1
303 1 7.9582162075711889e+00 2.3861013212506133e+01 1.1648772371938783e+01 0 0 1
304 1 9.7144564717831461e+00 2.5676567451790159e+01 1.0086595913873827e+01 0 0 1
310 1 1.4549051291701240e+00 3.0140080722308856e+01 1.1698325170376116e+01 0 0 1
308 1 6.3953926182834273e+00 2.8317306325363429e+01 9.8292962405450996e+00 0 0 1
316 1 7.7301896926603844e+00 2.9954591611461495e+01 1.1505630477028935e+01 0 0 1
98 1 1.6196072363088994e+00 1.9100815618095115e+00 1.4600211224824633e+01 0 1 0
182 1 9.7056354641573872e+00 1.5844821195806540e+01 1.7246933203164438e-01 0 0 1
326 1 6.3248175665872850e+00 4.4554208891018177e-01 1.2697922734187385e+01 0 1 0
104 1 8.0097572480556707e+00 1.8055141928962215e+00 1.4182378103540643e+01 0 1 0
268 1 6.6266428929474825e+00 6.4496666502165843e+00 2.9406017204557849e-01 0 0 1
105 1 3.2949870698140060e+00 3.4524187152747752e+00 1.3000196964648298e+01 0 1 0
100 1 4.8912953447661245e+00 3.0211194746382834e+01 1.4517221245391097e+01 0 0 0
265 1 2.9847559010249247e+00 2.8321814597959513e+01 1.0383409717449352e-01 0 0 1
84 1 4.8134592208821623e+00 5.3640418167584096e+00 1.4473052428832828e+01 0 1 0
2 1 1.8151639236982225e-01 6.6791826130922303e+00 1.3190126885484654e+01 0 0 0
242 1 3.0751393316850240e+00 9.6675949203267990e+00 1.2848962263694123e+01 0 0 0
266 1 6.1137012306329224e+00 2.2192113580473205e-01 4.0071487510072024e-01 0 1 1
1 1 1.4601962048837773e+00 8.4936341446195982e+00 1.4685094502781986e+01 0 0 0
112 1 6.8528514421283155e+00 6.5526935807466282e+00 1.3023197566544169e+01 0 0 0
174 1 1.0470982461263179e-01 6.8385703776516200e+00 4.3778324194359591e-01 0 0 1
5 1 8.1167891764343345e+00 8.3493883279704271e+00 1.4374662836903783e+01 0 0 0
218 1 2.6585301450321910e+00 1.6619658642709361e+01 5.2454424207167782e-01 0 0 1
183 1 3.3660573492845205e+00 2.2073237068516804e+01 1.7708570283160616e-01 0 0 1
247 1 6.3228728494958801e+00 1.2437142874013791e+01 1.2791252059608391e+01 0 0 0
1081 1 9.9164406321617896e-02 2.4149607277254049e+01 1.1665572204610264e+00 1 -2 0
10 1 4.5666424972046276e+00 1.1187451370262675e+01 1.4208596039207437e+01 0 0 0
246 1 9.6056055246057728e+00 9.9603575808021461e+00 1.2825214512456874e+01 0 0 0
14 1 1.9758944204579156e+00 1.4424787012001726e+01 1.4481057665569207e+01 0 0 0
267 1 3.3415661606594078e+00 3.7848932400469666e+00 8.7870635067004377e-02 0 1 1
23 1 3.4750005592951321e+00 1.6271267609894487e+01 1.3103805168729396e+01 0 0 0
250 1 6.3325011736815665e-02 1.8975445235249698e+01 1.2893436609399703e+01 0 0 0
30 1 9.6080613234467958e+00 1.5603007204536409e+01 1.3245328627323961e+01 0 0 0
20 1 7.8356511141194236e+00 1.4059032097699376e+01 1.4753457564471711e+01 0 0 0
172 1 9.3527126479168405e+00 9.9381530817348018e+00 4.3152776954391331e-01 0 0 1
288 1 9.0921362236752525e+00 3.6343669700045793e+00 7.3799514472055050e-01 0 1 1
233 1 6.4153087262019506e+00 1.8708384344229394e+01 1.2903041434039235e+01 0 0 0
18 1 4.9048447554713279e+00 1.7474343215255011e+01 1.4848055903899327e+01 0 0 0
276 1 8.9615882060438778e+00 2.8553350935168467e+01 5.3175021633408226e-01 0 0 1
25 1 1.5683117686588250e+00 2.0560279658034183e+01 1.4725044783472120e+01 0 0 0
107 1 3.0724576827555237e+00 2.2302956671680537e+01 1.3321277560847681e+01 0 0 0
184 1 5.9139525956025896e+00 1.3025223718124954e+01 2.5550508892378826e-01 0 0 1
35 1 9.6655514890493190e+00 2.2192184550645056e+01 1.3130318470842113e+01 0 0 0
17 1 7.7411534376347282e+00 2.0507860802692917e+01 1.4333800430270978e+01 0 0 0
217 1 9.2200211171083968e+00 2.2061635072449022e+01 5.5710699427121291e-01 0 0 1
91 1 6.2424651077513227e+00 2.5461907618638950e+01 1.3231212824469450e+01 0 0 0
83 1 4.6053351816569386e+00 2.3967632057027405e+01 1.4706289451133609e+01 0 0 0
272 1 6.2073979959079066e+00 2.5265517134170477e+01 5.4108401315556520e-01 0 0 1
97 1 8.1273437752943707e+00 2.6888276904654806e+01 1.4869253153488351e+01 0 0 0
86 1 3.1336714840462805e+00 2.8507187964169695e+01 1.3108465732146810e+01 0 0 0
327 1 8.8517596822728806e-02 6.5882357691967712e+00 6.7775113091130885e+00 0 0 1
324 1 6.6519205314909666e-02 2.4936650258490221e+01 6.8675802384361511e+00 0 0 1
1230 1 3.8043608128362494e-01 1.3036586736406688e+01 6.3294519086757193e+00 0 0 -1
803 1 4.6245524313299494e-02 3.2056197208505205e-01 1.3686847304358370e+01 2 1 3
962 1 6.1155949816051575e-02 1.3303424653028799e+01 1.7627040736169516e-01 2 2 3
1358 1 5.3301632206505889e-01 2.8207662851827230e+01 3.9686394873212332e+00 1 -1 1
143 1 1.4876390818867546e-01 6.4088091512928347e-01 1.9728161903998604e+01 0 1 0
101 1 4.5098414724397919e+00 2.0064190465546621e+00 1.7720338848932176e+01 0 1 0
115 1 6.0346940054930647e+00 3.9692142333341379e-01 1.9223367424205541e+01 0 1 0
89 1 1.8027349252322553e+00 5.1336215902211757e+00 1.7779240565461425e+01 0 1 0
113 1 3.3454826986412023e+00 3.4705111051870721e+00 1.9193798130314335e+01 0 1 0
114 1 9.1078464037101519e+00 3.4843346615317374e+00 1.9181048123710351e+01 0 1 0
82 1 7.8515722982133642e+00 5.0857424599605876e+00 1.7488067050653875e+01 0 1 0
122 1 2.9800709575676182e-01 6.5824290000568038e+00 1.9404830789351305e+01 0 0 0
108 1 6.1118267328897975e+00 6.5128431120270189e+00 1.8905433967796913e+01 0 0 0
63 1 3.4908446339670385e+00 9.5451668602141044e+00 1.9359905272785326e+01 0 0 0
3 1 5.0876929850092214e+00 8.2893740306260906e+00 1.7299768835928163e+01 0 0 0
28 1 9.3946014290973299e+00 9.6626706543306504e+00 1.9086517796700829e+01 0 0 0
34 1 5.3134151690332787e-01 1.2793866731672219e+01 1.8935044188338789e+01 0 0 0
8 1 2.0325953446640952e+00 1.1282201517696658e+01 1.7558479103616733e+01 0 0 0
43 1 6.3401026675743957e+00 1.2441402961462137e+01 1.9677669122697626e+01 0 0 0
12 1 7.6490863505438220e+00 1.1128143786099866e+01 1.7884625947379121e+01 0 0 0
13 1 9.5791032777195504e+00 1.2630632337657811e+01 1.6592890076582151e+01 0 0 0
33 1 2.9598216873598586e+00 1.5744948943504539e+01 1.9104038843527142e+01 0 0 0
11 1 4.5947216936807251e+00 1.4065727523981408e+01 1.7770684133694331e+01 0 0 0
29 1 9.3579165636358379e+00 1.5778339201262501e+01 1.8797293440474888e+01 0 0 0
15 1 1.3051655792107615e+00 1.7280047310898468e+01 1.7808724682116821e+01 0 0 0
6 1 2.5570804476365805e-01 1.9776148832498958e+01 1.9033176315660651e+01 0 0 0
32 1 6.2821434333644497e+00 1.9120184101907594e+01 1.8964796424097006e+01 0 0 0
21 1 7.7986801798370999e+00 1.7383380682408553e+01 1.7368056066261175e+01 0 0 0
121 1 2.9235735728169616e+00 2.2880540440824614e+01 1.9429945427866443e+01 0 0 0
62 1 7.7411429262942907e-02 1.9430687882884833e+01 2.5461653583449156e+01 0 0 0
27 1 4.6086310709768217e+00 2.0794595301173025e+01 1.7492695059823912e+01 0 0 0
31 1 9.1677053514557763e+00 2.2151932549417076e+01 1.8936298728889444e+01 0 0 0
80 1 1.7117010284740859e+00 2.4254080524569002e+01 1.7928970313637016e+01 0 0 0
148 1 6.0852248553925428e+00 2.5539233111890059e+01 1.9588083457741384e+01 0 0 0
87 1 7.8281366668352179e+00 2.4041239804182457e+01 1.7645379434835633e+01 0 0 0
109 1 2.8920007842717999e+00 2.8773094258548021e+01 1.9146358381114066e+01 0 0 0
94 1 1.4732257947682912e+00 3.0268214952199038e+01 1.7456454823404940e+01 0 0 0
95 1 4.7669248275040053e+00 2.7148560638513597e+01 1.7815471495171629e+01 0 0 0
150 1 9.1358606435271241e+00 2.8661724554725321e+01 1.9530360779055101e+01 0 0 0
102 1 7.8265096505765577e+00 3.0263579924026569e+01 1.7724001418608879e+01 0 0 0
131 1 1.9500495223642584e+00 2.0273468571081192e+00 2.0878122985223815e+01 0 1 0
130 1 3.1085897375683098e+00 1.1753585317260269e-01 2.2294325898927408e+01 0 1 0
133 1 4.6555562254851504e+00 1.7582079763787939e+00 2.3657178126736394e+01 0 1 0
136 1 7.8029605452768829e+00 1.9116943132618027e+00 2.0922564815183033e+01 0 1 0
135 1 9.3992502291592697e+00 4.0858233924174636e-01 2.2299921233454160e+01 0 1 0
137 1 1.3554966639935491e+00 5.2577596070565402e+00 2.3812346653397292e+01 0 1 0
19 1 6.0777964880453457e+00 1.5590653523044129e+01 1.6173785832353818e+01 0 0 0
139 1 4.8721563957857974e+00 4.9797052205967587e+00 2.0807774709570808e+01 0 1 0
138 1 6.2888416427840532e+00 3.8060707339753495e+00 2.2541083259635066e+01 0 1 0
36 1 1.9929846912096008e+00 7.9405662146397731e+00 2.1260582603033036e+01 0 0 0
37 1 3.2780790238220797e-01 9.4937840832251457e+00 2.2170944470274009e+01 0 0 0
146 1 3.5653318205256985e+00 6.4562976700397243e+00 2.2732296070902240e+01 0 0 0
40 1 7.6771826973459429e+00 8.0562385075508924e+00 2.0654972659106317e+01 0 0 0
147 1 9.4676111054345036e+00 6.4808665680237381e+00 2.2375703625229161e+01 0 0 0
39 1 6.6849586477573677e+00 9.4660217848659371e+00 2.2897357580860437e+01 0 0 0
44 1 1.6284582624087969e+00 1.1293137727855143e+01 2.3853047293442867e+01 0 0 0
45 1 3.3168663209530944e+00 1.2711515112829940e+01 2.2499637116369382e+01 0 0 0
46 1 5.0051898844482947e+00 1.0906935990012142e+01 2.1411447205193529e+01 0 0 0
49 1 9.5782851220118950e+00 1.2974295030005875e+01 2.2419638212263028e+01 0 0 0
48 1 7.7827022180984935e+00 1.1532990846235093e+01 2.3830896559754041e+01 0 0 0
53 1 1.9219418250997928e+00 1.4144950439498025e+01 2.0786828460506506e+01 0 0 0
60 1 4.9387546830741408e-01 1.5662142532002091e+01 2.2288105593242609e+01 0 0 0
47 1 4.7117108079122767e+00 1.4171722111859077e+01 2.4059587288861742e+01 0 0 0
57 1 6.3514603812380708e+00 1.6092542166383446e+01 2.2595177741789477e+01 0 0 0
50 1 7.8908451362393484e+00 1.4497820562532258e+01 2.1026412664599142e+01 0 0 0
52 1 3.1103126071113483e+00 1.9540212290637108e+01 2.2379324805304073e+01 0 0 0
54 1 1.8090898022738084e+00 1.7951649561131887e+01 2.3862480211603028e+01 0 0 0
56 1 4.7129719334356004e+00 1.7429897073484298e+01 2.0723517971129461e+01 0 0 0
59 1 9.2948135346933896e+00 1.9275177166734395e+01 2.2017200271970168e+01 0 0 0
58 1 7.9868727015319427e+00 1.7962991141397474e+01 2.4277311455985711e+01 0 0 0
55 1 1.6307834314378551e+00 2.1054094970072498e+01 2.0775496203684796e+01 0 0 0
51 1 4.9029844118926604e+00 2.0874283700436678e+01 2.3832694230644094e+01 0 0 0
128 1 6.2436141608268505e+00 2.2613417645513447e+01 2.2601443802294074e+01 0 0 0
42 1 7.5744165854646734e+00 2.0969265623106637e+01 2.0577414689153180e+01 0 0 0
124 1 1.0876329615242131e+00 2.7004194139162504e+01 2.0947461349576322e+01 0 0 0
116 1 1.2615602294749502e+00 2.3950167383784720e+01 2.3904658134704210e+01 0 0 0
117 1 2.7617782745829396e+00 2.5713468468405026e+01 2.2820168074249711e+01 0 0 0
118 1 4.3429396769634883e+00 2.4084912982547312e+01 2.1025049074168049e+01 0 0 0
127 1 7.8505631714433326e+00 2.6948822897326469e+01 2.0978004266439051e+01 0 0 0
119 1 8.0445242035057287e+00 2.4076076699737531e+01 2.3992224135073986e+01 0 0 0
120 1 9.4936855532011712e+00 2.5632848423116588e+01 2.2431409317156461e+01 0 0 0
129 1 1.2826397875787292e+00 2.9808886738537232e+01 2.4027231168199854e+01 0 0 0
260 1 7.9582247150976695e+00 3.0183782228789170e+01 3.0269866977982229e+01 0 0 0
132 1 4.5797124770319142e+00 3.0008086284386767e+01 2.0766020965014793e+01 0 0 0
125 1 4.7516026303985255e+00 2.7282783110524242e+01 2.4118954286957731e+01 0 0 0
126 1 6.0600382289998000e+00 2.8439184680348298e+01 2.2121621908622405e+01 0 0 0
134 1 7.6485768860345456e+00 3.0113883867869632e+01 2.3804853997650220e+01 0 0 0
144 1 1.4906866147608300e-01 7.2459013319865717e-01 2.5248979800838129e+01 0 1 0
157 1 1.4424886425842671e+00 1.8755163152601779e+00 2.7277952832034561e+01 0 1 0
165 1 6.1578619119566005e+00 2.3697741226400135e-01 2.5516582046588226e+01 0 1 0
160 1 7.9473167674870506e+00 1.7060621126747273e+00 2.7061435867923720e+01 0 1 0
145 1 2.7399349955624044e+00 3.4213930322769177e+00 2.5279064336990238e+01 0 1 0
259 1 6.2815952905627928e+00 2.8501308859329242e+01 2.8813838856550046e+01 0 0 0
161 1 4.9747289336778842e+00 4.9296890797136701e+00 2.7045913061406480e+01 0 1 0
140 1 8.1323977242226793e+00 5.1609260608398140e+00 2.4584383594452603e+01 0 1 0
166 1 9.7487962388828695e+00 3.0854839883031331e+00 2.5570994473841264e+01 0 1 0
66 1 1.5687684678352756e+00 8.0262430805606328e+00 2.6873683170602600e+01 0 0 0
38 1 5.0209811685874159e+00 7.9752633601615210e+00 2.4377690815818546e+01 0 0 0
162 1 6.5807893616037481e+00 6.5157881094749408e+00 2.5923906255180032e+01 0 0 0
79 1 3.4496889181525288e+00 9.6979741791038894e+00 2.5578993582120553e+01 0 0 0
78 1 9.4156055348626975e+00 9.6039625941635052e+00 2.5553253787957498e+01 0 0 0
69 1 7.9103207867437337e+00 8.3457273368287552e+00 2.7226038679341663e+01 0 0 0
67 1 2.3139152273096220e-01 9.9470105371531830e+00 2.8173177220733880e+01 0 0 0
61 1 3.2417220387759166e-01 1.2929816630887050e+01 2.5265039437785031e+01 0 0 0
68 1 6.1660763757558890e+00 1.2679165744294476e+01 2.5667787375533951e+01 0 0 0
71 1 4.6562768211245968e+00 1.1135761205316598e+01 2.7262141260320444e+01 0 0 0
70 1 1.6693798105927629e+00 1.4406722923010491e+01 2.6794288617638770e+01 0 0 0
65 1 3.1400830939646438e+00 1.6204918246695087e+01 2.5346904189650715e+01 0 0 0
41 1 9.5831901935878196e+00 1.6174712560763329e+01 2.5446859852732057e+01 0 0 0
73 1 7.8961066433435434e+00 1.4547601833379632e+01 2.6859108204933282e+01 0 0 0
255 1 9.0227654496374097e+00 2.5288736975248739e+01 2.8619644574736842e+01 0 0 0
75 1 4.7291777114585720e+00 1.7703404734245023e+01 2.6901820408468001e+01 0 0 0
64 1 6.0363010820974772e+00 1.9279651885442927e+01 2.5426825455730810e+01 0 0 0
76 1 1.4435124375715422e+00 2.0923321262492372e+01 2.6781686401120783e+01 0 0 0
141 1 3.2792032609568609e+00 2.2466102103781402e+01 2.5375067277321911e+01 0 0 0
74 1 7.9604060718064753e+00 2.0436933846376714e+01 2.7221760208705678e+01 0 0 0
164 1 9.3320124440015242e+00 2.2299376465626739e+01 2.5738870696685371e+01 0 0 0
152 1 4.7203326270540735e+00 2.3894318056243662e+01 2.6854519320805331e+01 0 0 0
142 1 6.2194511604802178e+00 2.5264955570636957e+01 2.5184804452417051e+01 0 0 0
156 1 7.7397967123267986e+00 2.6869553014415359e+01 2.6849270131712284e+01 0 0 0
154 1 1.6673983454641366e+00 2.7356658688328785e+01 2.7061241514616849e+01 0 0 0
153 1 3.3203592928112964e+00 2.8852629071003030e+01 2.5665965721446650e+01 0 0 0
155 1 4.8479833735827569e+00 3.0386675951670433e+01 2.7373622329781870e+01 0 0 0
149 1 9.4491286563235644e+00 2.8206782879175098e+01 2.5472831946960810e+01 0 0 0
158 1 3.0472399187674406e+00 4.3668359415459090e-01 2.8581800960573627e+01 0 1 0
263 1 4.6021696931437726e+00 1.8852413880424206e+00 3.0344573104576824e+01 0 1 0
22 1 9.3616964368700604e+00 1.8850331781714981e+01 1.6148789188020974e+01 0 0 0
159 1 9.6811688262858748e+00 4.2011100870895968e-01 2.8370900286282424e+01 0 1 0
264 1 1.3666080176146760e+00 5.2039373751388611e+00 2.9985246695030643e+01 0 1 0
262 1 6.1747944853892403e+00 3.2883920377761813e+00 2.8744059524291870e+01 0 1 0
92 1 6.3408652159794849e+00 3.3588246582646590e+00 1.5691317318026618e+01 0 1 0
253 1 1.5745027409610604e+00 2.3937465591394361e+01 3.0067381693749454e+01 0 0 0
261 1 7.9691097867920666e+00 4.9591783757664025e+00 2.9899355130681698e+01 0 1 0
163 1 3.2113760258129198e+00 6.5713999094699780e+00 2.8497559773353583e+01 0 0 0
96 1 6.2540297771184150e+00 2.8522860891739189e+01 1.6155692862518443e+01 0 0 0
258 1 4.5225035151899720e+00 2.6732356667884922e+01 2.9974267794102271e+01 0 0 0
103 1 9.5693778610180171e+00 6.7779934875254144e-01 1.5945842978746120e+01 0 1 0
168 1 4.8508427643409338e+00 7.8732959160605462e+00 3.0185792149966112e+01 0 0 0
167 1 9.4333494743397672e+00 6.6888160649279875e+00 2.8678436368892818e+01 0 0 0
171 1 3.0082241268040120e+00 1.2691933276544372e+01 2.8775667526147668e+01 0 0 0
170 1 1.4663960863582022e+00 1.1333942942814769e+01 3.0273871464309856e+01 0 0 0
169 1 6.2507211116051309e+00 9.8549527658450078e+00 2.8798725640838985e+01 0 0 0
16 1 3.1966775386245376e+00 6.7540433313874981e+00 1.5906632735019306e+01 0 0 0
72 1 9.5189327200081042e+00 1.2832120035181768e+01 2.8530379304345338e+01 0 0 0
7 1 1.3316079906030182e-01 1.0125428201366006e+01 1.6149345528037934e+01 0 0 0
173 1 7.9101234541973344e+00 1.1402676657519921e+01 3.0512891428817372e+01 0 0 0
123 1 1.0109688858159248e-01 3.5699921294645431e+00 2.2112597116768459e+01 0 1 0
257 1 1.5410602482557818e+00 3.0153347223928922e+01 3.0260262103120933e+01 0 0 0
177 1 6.1412166289418355e+00 1.5796060946227277e+01 2.8692018504169422e+01 0 0 0
176 1 4.2063615335558362e+00 1.4680032286041675e+01 2.9937938683976050e+01 0 0 0
24 1 1.3684668659624988e-01 1.5697092003508999e+01 1.5816872369697423e+01 0 0 0
77 1 3.3078142071930148e+00 1.9382900829576634e+01 2.8283251532353386e+01 0 0 0
175 1 1.2731738153227681e+00 1.7832131412050035e+01 3.0002886863933284e+01 0 0 0
4 1 6.4293314780458433e+00 9.7930280230873699e+00 1.5740451791997920e+01 0 0 0
178 1 9.4938924366576387e+00 1.8886226363908413e+01 2.8791355253353043e+01 0 0 0
179 1 7.4339648001616094e+00 1.7568868054841587e+01 3.0355626425572865e+01 0 0 0
256 1 1.1896497211586576e-01 2.2443384479900669e+01 2.8727640735050276e+01 0 0 0
181 1 6.4301190180698704e+00 2.2110519479521205e+01 2.8798355829302828e+01 0 0 0
110 1 9.6634897108163536e+00 6.5512373739559795e+00 1.5860125439874681e+01 0 0 0
180 1 4.7882529572589743e+00 2.0806836859343278e+01 3.0146326691925491e+01 0 0 0
81 1 3.1815894855830944e+00 2.5688882490667737e+01 1.6244924967329574e+01 0 0 0
254 1 7.7054464613697959e+00 2.3605465277019103e+01 3.0290133808832568e+01 0 0 0
151 1 3.1397256193934888e+00 2.5411423798692180e+01 2.8381113673701126e+01 0 0 0
88 1 9.6264436902757815e+00 2.5452109728809734e+01 1.6288714766005391e+01 0 0 0
26 1 2.8398036583130377e+00 1.8878149619887704e+01 1.6073524530265697e+01 0 0 0
90 1 6.6314120179616159e-02 2.2772331372579348e+01 1.6520427649970753e+01 0 0 0
111 1 6.3823463607190840e+00 2.2433503671846633e+01 1.6027770176052172e+01 0 0 0
99 1 2.9386381057014441e+00 3.5906217896544179e-01 1.5961902978714292e+01 0 1 0
9 1 3.3116261435043426e+00 1.2695545621756468e+01 1.5995344241623572e+01 0 0 0
106 1 3.2043533828734892e-02 3.7578273962120257e+00 1.6297362196965643e+01 0 1 0
1451 1 1.9099539150995129e-01 2.4803811998602214e+01 1.9636577240939697e+01 0 1 1
678 1 1.2614264820036625e-01 2.1064000299891934e+01 2.2982583751495056e+01 2 1 -2
1283 1 2.0123588466718445e-01 2.6838994044843158e+01 2.4758082671789328e+01 0 -2 -3
955 1 5.8234349958858900e-02 2.9286492390626567e+01 2.1155147909447159e+01 1 1 0
1281 1 8.8392812233635709e-02 3.9628225661522181e+00 2.7739092920174535e+01 1 3 -1
588 1 1.3926693053284943e+01 1.9644629814122510e+00 2.3722538934679824e+00 0 1 1
589 1 1.5862014910877480e+01 1.3420053500614815e-01 3.3320075330884329e+00 0 1 1
576 1 1.2123258551123525e+01 2.9566123048708639e+00 3.7080152016702721e+00 0 1 1
587 1 1.0970467936351039e+01 4.9299183502230353e+00 2.0771124490905319e+00 0 1 1
570 1 1.5866028092023397e+01 6.1779473125304456e+00 3.6565603785833010e+00 0 0 1
591 1 1.8927066732985658e+01 3.2313402133527802e+00 3.7519184056163777e+00 0 1 1
574 1 1.7400096871114663e+01 4.2883813246639724e+00 2.1452288367589287e+00 0 1 1
497 1 1.2718592239188409e+01 9.4903281159995441e+00 3.5800146469292429e+00 0 0 1
498 1 1.4680495784250294e+01 8.2273780604469291e+00 1.9999748747937427e+00 0 0 1
501 1 1.9140016076663908e+01 9.5265747686098603e+00 3.5413074064053407e+00 0 0 1
593 1 1.8894476479254440e+01 6.2377928545343337e+00 9.3034508208305433e-01 0 0 1
504 1 1.1383405160076878e+01 1.1204143433415236e+01 1.6693594685543225e+00 0 0 1
508 1 1.6082597208821014e+01 1.2766770642856670e+01 3.4542204813961521e+00 0 0 1
507 1 1.7633817604359827e+01 1.0995215946210898e+01 1.8575137565744730e+00 0 0 1
511 1 1.1323999988184532e+01 1.4335862575733003e+01 4.4940349576447671e+00 0 0 1
512 1 1.2855670877147030e+01 1.6339852757339528e+01 2.8057266174030948e+00 0 0 1
514 1 1.4378927620831325e+01 1.4690459131870650e+01 1.7875831730930072e+00 0 0 1
518 1 1.9265247866027650e+01 1.6369656651691525e+01 3.3254017527590456e+00 0 0 1
510 1 1.0896877973077524e+01 1.7557327925751103e+01 1.6705774764683035e+00 0 0 1
509 1 1.5945567145320712e+01 1.9201746472024308e+01 3.0754818487925468e+00 0 0 1
516 1 1.7410048590391796e+01 1.7615321039359792e+01 1.6428957874966514e+00 0 0 1
519 1 1.0766658722037999e+01 2.0644701964269075e+01 4.4864153921026162e+00 0 0 1
522 1 1.2693974712216038e+01 2.2175769128874972e+01 3.1344311192593337e+00 0 0 1
520 1 1.4209344210222433e+01 2.0667553516920425e+01 1.7082598495543981e+00 0 0 1
503 1 1.8791621216970061e+01 2.2035185895644464e+01 3.3776347534083770e+00 0 0 1
572 1 1.7491337804345108e+01 2.3581083679254345e+01 1.9001688246822743e+00 0 0 1
568 1 1.0953723895207082e+01 2.3847058500970959e+01 1.4689545312629360e+00 0 0 1
573 1 1.5751571872183259e+01 2.5227645525816701e+01 3.2135246463469676e+00 0 0 1
578 1 1.2090886120997531e+01 2.8662237583031590e+01 3.3947642737719983e+00 0 0 1
575 1 1.0584638703426938e+01 2.9912688905387611e+01 1.9252395987896080e+00 0 0 1