
# Define the lattice
#
variable	    lattice_constant equal 6.36339
lattice		    diamond ${lattice_constant}
lattice		    diamond 6.36339
Lattice spacing in x,y,z = 6.3633900 6.3633900 6.3633900

# Define region
# multiples of lattice spacing
#
region 		    simbox block 0 8 0 8 0 8

# Create Atoms
#
create_box          1 simbox
Created orthogonal box = (0.0000000 0.0000000 0.0000000) to (50.907120 50.907120 50.907120)
  1 by 2 by 3 MPI processor grid
create_atoms        1 box
Created 4096 atoms
  create_atoms CPU = 0.000 seconds
mass                1 18.015

# Define potential
#
pair_style          sw
pair_coeff          * * mW_real.sw mW
Reading sw potential file mW_real.sw with DATE: 2019-02-27

# Add velocity/set timestep
#
velocity            all create ${TEMP} 120598 rot yes dist gaussian
velocity            all create 274 120598 rot yes dist gaussian
timestep            5.0

# Define output
#
compute	            1 all msd
thermo              100
thermo_style        custom step temp press vol etotal ke pe c_1[4]

# Neighbor lists
#
neigh_modify        delay 0 every 1 check yes

# Set fixes
#
fix                 1 all momentum 10 linear 1 1 1 rescale
fix                 2 all nve
fix                 3 all temp/csvr ${TEMP} ${TEMP} 500.0 928347
fix                 3 all temp/csvr 274 ${TEMP} 500.0 928347
fix                 3 all temp/csvr 274 274 500.0 928347
fix                 4 all press/berendsen iso ${PRES} ${PRES} 1000.0 modulus 20000
fix                 4 all press/berendsen iso -500 ${PRES} 1000.0 modulus 20000
fix                 4 all press/berendsen iso -500 -500 1000.0 modulus 20000

# Run 0.5 ns equilibration
#
dump		    1 all custom 1000 eq.${NAME}.dump id type x y z vx vy vz
dump		    1 all custom 1000 eq.ice_274K_500atm_mW.dump id type x y z vx vy vz
run                 100000
Neighbor list info ...
  update every 1 steps, delay 0 steps, check yes
  max neighbors/atom: 2000, page size: 100000
  master list distance cutoff = 6.3065
  ghost atom cutoff = 6.3065
  binsize = 3.15325, bins = 17 17 17
  1 neighbor lists, perpetual/occasional/extra = 1 0 0
  (1) pair sw, perpetual
      attributes: full, newton on
      pair build: full/bin/atomonly
      stencil: full/bin/3d
      bin: standard
Per MPI rank memory allocation (min/avg/max) = 4.800 | 4.800 | 4.801 Mbytes
Step Temp Press Volume TotEng KinEng PotEng c_1[4] 
       0          274   -4574.7871    131927.58   -46925.239    3344.5583   -50269.797            0 
     100    216.02587   -1071.2658    125957.01    -45886.47    2636.9019   -48523.372   0.24657885 
     200    213.71382   -509.33449    125426.49   -45100.488      2608.68   -47709.168   0.31528729 
     300     223.4975   -490.71925    125545.27   -44574.603    2728.1037   -47302.706   0.32276087 
     400     245.0906   -545.12814    125760.68   -44267.735    2991.6781   -47259.413   0.30653834 
     500    263.90195   -436.32857    125890.61   -44011.642    3221.2973    -47232.94   0.30765843 
     600    267.34275   -436.62166    125977.79   -43752.295    3263.2972   -47015.593   0.31913112 
     700    268.16782   -500.76476    126024.43   -43690.998    3273.3682   -46964.367   0.29795625 
     800    277.17089   -487.65249    126067.73   -43612.623    3383.2636   -46995.886   0.32814404 
     900    278.05032   -493.39755    126084.22    -43596.46    3393.9982   -46990.458   0.29419161 
    1000    270.77797   -517.95228    126093.27   -43670.701    3305.2289    -46975.93    0.2927131 
    1100    268.43837   -524.79012    126066.26   -43608.929    3276.6708     -46885.6   0.33980283 
    1200    276.89147   -489.89032    126081.62   -43589.325    3379.8528   -46969.178   0.30235541 
    1300    276.05977   -511.31636    126114.71   -43520.381    3369.7008   -46890.082   0.29922914 
    1400    270.52863    -519.2588    126130.64   -43588.166    3302.1853   -46890.351   0.32652402 
    1500    266.79212   -545.62152    126052.83   -43640.811     3256.576   -46897.387   0.31130015 
    1600    273.06992   -563.83272    126094.64   -43608.058    3333.2054   -46941.263   0.31174351 
    1700    276.93184    -531.5961    126086.04   -43617.827    3380.3455   -46998.173   0.32188773 
    1800    275.51061   -490.84827    126090.67   -43580.735    3362.9974   -46943.733   0.29132402 
    1900    275.25695   -445.46738    126074.75   -43502.568    3359.9012   -46862.469   0.30337088 
    2000    280.36539   -463.03301    126105.88     -43471.1    3422.2569   -46893.357   0.31248709 
    2100    281.43991   -523.11578    126079.23    -43608.83     3435.373   -47044.203   0.30037404 
    2200    277.99908    -470.9433    126081.48    -43553.74    3393.3727   -46947.113   0.30623541 
    2300    274.96551   -557.59742    126090.78   -43514.587    3356.3437   -46870.931   0.33147619 
    2400    274.91013   -555.39776    126089.12   -43538.157    3355.6678   -46893.825   0.31296201 
    2500    276.37354   -505.74648    126092.46   -43561.883    3373.5308   -46935.414   0.29690835 
    2600    275.71313   -491.51697    126078.71   -43592.302    3365.4695   -46957.771   0.32300649 
    2700    273.65793   -528.97223    126043.71   -43595.379    3340.3828   -46935.762   0.30627061 
    2800     277.2492   -494.90998    126065.74   -43493.112    3384.2194   -46877.332   0.31361831 
    2900     276.0446   -495.56621    126117.32   -43506.782    3369.5155   -46876.298   0.32772761 
    3000     282.8107   -511.81337    126078.32   -43553.458    3452.1054   -47005.564   0.29601155 
    3100     271.0841   -545.14418    126070.84   -43529.766    3308.9656   -46838.732   0.31489887 
    3200    276.01298   -488.15881    126052.67   -43615.399    3369.1296   -46984.528   0.31940402 
    3300    269.71797   -473.39773    126003.44   -43701.883    3292.2901   -46994.173   0.29826935 
    3400    277.26777   -504.68678    126028.19   -43635.408    3384.4461   -47019.854   0.30836285 
    3500    272.28073   -541.27822    126032.13   -43597.181    3323.5722   -46920.754   0.33370972 
    3600    273.90673   -531.15566    126046.38     -43601.9    3343.4199    -46945.32   0.30077655 
    3700     278.1081   -481.19923       126038   -43558.145    3394.7035   -46952.848   0.31539683 
    3800    278.98241   -463.33601    126087.55   -43556.771    3405.3757   -46962.146   0.31382584 
    3900    280.49067   -475.71086    126088.19   -43558.193    3423.7862   -46981.979   0.29535481 
    4000    275.64811   -533.86027    126022.49   -43592.737    3364.6758   -46957.413    0.3201467 
    4100     275.0029    -530.6544    126026.18   -43619.459    3356.8002   -46976.259   0.31715073 
    4200    273.08518   -504.77695    125994.86   -43569.682    3333.3916   -46903.073   0.30394022 
    4300    272.26645   -509.74089    126009.89   -43693.233    3323.3978   -47016.631   0.30705571 
    4400    274.62297   -502.05249    126025.95    -43587.23    3352.1625   -46939.392   0.32649607 
    4500      271.054   -525.22003    126054.28   -43641.648    3308.5982   -46950.246   0.30820552 
    4600    268.99493   -530.78522    126027.26   -43664.484    3283.4644   -46947.949    0.3066666 
    4700    273.50618   -540.53741    126014.88   -43569.784    3338.5305   -46908.315   0.33672543 
    4800     281.2125   -459.99236    126077.82   -43486.374     3432.597   -46918.971   0.29292885 
    4900    274.48047   -492.86964    126071.54   -43454.404    3350.4231   -46804.827   0.31562123 
    5000    274.79204   -503.43117    126072.14   -43574.605    3354.2262   -46928.831   0.33019265 
    5100    272.48302   -492.49114    126054.76   -43498.961    3326.0414   -46825.002   0.29686841 
    5200    271.26521   -520.97672    126058.92   -43567.784    3311.1763    -46878.96   0.33121009 
    5300    276.20506   -507.25912    126015.96   -43662.113    3371.4741   -47033.587   0.31775028 
    5400    267.81775   -533.71316    126009.61   -43641.586    3269.0951   -46910.681   0.30565367 
    5500     275.2811   -522.31872    126033.42    -43612.86     3360.196   -46973.056   0.30881882 
    5600    272.28342   -498.23775    126034.54   -43647.097     3323.605   -46970.702   0.31319345 
    5700    271.53645    -495.1956    126027.41   -43634.295    3314.4872   -46948.782   0.31487546 
    5800     275.3202   -474.89644    126021.35   -43583.908    3360.6732   -46944.581   0.30776889 
    5900    271.93917    -538.7475    126006.69   -43657.541    3319.4029   -46976.943   0.32745896 
    6000    269.42569   -485.06717     125996.4   -43632.519    3288.7224   -46921.242   0.30371669 
    6100    268.27084   -531.61023    125994.11   -43709.183    3274.6258   -46983.809   0.30964535 
    6200    270.70859   -512.61806    126012.63   -43689.865     3304.382   -46994.247   0.32066642 
    6300     274.8978   -457.89113    126047.18    -43578.36    3355.5172   -46933.877    0.2911688 
    6400    272.16998   -482.10562    126043.53   -43624.469    3322.2203   -46946.689   0.30845165 
    6500    269.63577   -528.56021    126035.29   -43639.155    3291.2867   -46930.441   0.32589095 
    6600    273.43745   -503.41654    126053.07   -43650.035    3337.6915   -46987.727   0.29218702 
    6700    271.49042   -461.43196    126039.57   -43696.096    3313.9253   -47010.022   0.30472297 
    6800    272.26424   -448.99885    126027.07   -43653.697    3323.3709   -46977.068   0.31193356 
    6900     277.6376   -516.71334    126057.94   -43588.295    3388.9604   -46977.256   0.29659706 
    7000    274.87506   -499.99278    126073.52    -43590.08    3355.2396    -46945.32   0.31516375 
    7100    272.75602   -491.22783    126085.24   -43597.908    3329.3737   -46927.282    0.3045278 
    7200    265.29899   -509.80806    126049.82   -43698.502    3238.3502   -46936.852   0.30194876 
    7300    261.04569   -530.99486    126004.27   -43739.779    3186.4326   -46926.212   0.31558677 
    7400    275.70307   -466.62445    126035.65   -43637.419    3365.3467   -47002.766   0.30644754 
    7500    275.48936   -462.22395    126065.35   -43576.776     3362.738   -46939.514   0.30342577 
    7600    276.21066    -480.3174     126075.5   -43551.457    3371.5426       -46923    0.3012863 
    7700    270.91265   -532.92704     126075.7   -43641.541    3306.8728   -46948.413   0.32095458 
    7800    265.17688   -499.77176    126046.54   -43692.794    3236.8596   -46929.653   0.30153213 
    7900    270.70973   -491.28905    126068.58   -43644.731    3304.3958   -46949.127   0.30491559 
    8000    274.66121   -458.03088    126089.71   -43553.388    3352.6293   -46906.018    0.3127935 
    8100    277.62134   -477.19817    126102.97   -43520.614    3388.7619   -46909.376   0.29387855 
    8200    275.97553   -531.65756    126109.88   -43544.677    3368.6725    -46913.35    0.3086331 
    8300    278.86544   -510.69712    126110.84   -43501.769    3403.9479   -46905.717   0.31504387 
    8400    278.38252   -502.41292    126113.69   -43485.749    3398.0532   -46883.802   0.30149437 
    8500    274.61188   -480.09561    126112.43   -43561.009    3352.0272   -46913.037   0.30880408 
    8600    272.66522   -530.06034    126112.81   -43575.668    3328.2654   -46903.933   0.31162932 
    8700    279.28844   -439.85033     126102.3   -43550.484    3409.1112   -46959.596   0.28823865 
    8800    270.19468   -520.76938    126066.78     -43581.5    3298.1089   -46879.609   0.31823199 
    8900    274.39457   -506.92074    126059.36   -43645.675    3349.3746   -46995.049   0.30294124 
    9000    275.14362   -514.91411    126058.94   -43577.735    3358.5178   -46936.253   0.30727696 
    9100    277.04262   -520.42187    126061.12   -43623.453    3381.6978   -47005.151    0.3117259 
    9200    275.03647   -496.12617    126086.09   -43528.646    3357.2099   -46885.856   0.29228887 
    9300    269.08067    -535.3859    126056.33    -43655.08    3284.5109   -46939.591   0.31119343 
    9400    273.31647   -502.98312    126055.82   -43629.663    3336.2148   -46965.878    0.3033796 
    9500    272.21025   -504.71451    126035.03   -43670.888    3322.7119     -46993.6   0.30518692 
    9600    269.84714   -512.62826    126057.83   -43662.969    3293.8668   -46956.835    0.3018078 
    9700    276.79807   -483.15547    126078.54   -43548.234    3378.7127   -46926.947    0.3055581 
    9800    276.33287   -504.41975    126122.84   -43505.692    3373.0342   -46878.726   0.31264675 
    9900     278.1109   -515.98522     126118.5   -43539.867    3394.7377   -46934.604   0.28953239 
   10000    278.40303   -505.58657    126086.63   -43584.859    3398.3036   -46983.162    0.3132791 
   10100    280.34596   -519.75675    126082.17   -43535.316    3422.0197   -46957.336   0.29747112 
   10200    278.82387   -489.45438     126090.1   -43508.381    3403.4405   -46911.821   0.30312828 
   10300    273.92507   -522.58187    126104.65   -43506.011    3343.6437   -46849.655   0.31879698 
   10400    276.44241   -507.29418     126111.5   -43497.501    3374.3714   -46871.873   0.29614751 
   10500    272.35893   -493.61851    126088.04   -43551.648    3324.5267   -46876.175   0.30438496 
   10600    272.32949    -463.7641    126071.21   -43573.776    3324.1674   -46897.943   0.31700467 
   10700     265.8373   -531.97085    126057.69   -43612.266     3244.921   -46857.187   0.30702281 
   10800    261.95091   -532.91019    126020.53   -43720.583    3197.4821   -46918.065   0.31194161 
   10900    268.17054   -482.50331    125986.34   -43704.211    3273.4015   -46977.612   0.31101021 
   11000    272.96555    -472.7481    125970.88   -43713.365    3331.9314   -47045.296   0.29895703 
   11100    274.89144   -523.28015    126006.73   -43634.569    3355.4396   -46990.008    0.3146329 
   11200    269.47115    -500.6332     126006.1   -43722.293    3289.2773    -47011.57   0.30391594 
   11300    274.16809   -509.38111    126008.31   -43651.816      3346.61   -46998.426   0.30502163 
   11400     265.9761   -517.45902    126035.32    -43627.15    3246.6152   -46873.765   0.30967035 
   11500     274.8517   -426.09759    126083.09    -43539.44    3354.9545   -46894.394   0.30651956 
   11600    276.10781   -533.15096    126127.38   -43544.226    3370.2871   -46914.513   0.30362802 
   11700    282.30163   -467.87776    126140.28   -43421.264    3445.8914   -46867.155   0.29448422 
   11800    279.07238   -519.70361    126114.72   -43504.441    3406.4738   -46910.915   0.31989044 
   11900    276.57267   -503.83367    126091.83   -43541.156    3375.9614   -46917.118    0.2990879 
   12000     279.4319   -516.44248    126068.19    -43489.35    3410.8623   -46900.212   0.30967443 
   12100    276.62904   -509.30158    126070.07   -43567.346    3376.6494   -46943.995   0.31468139 
   12200    277.67169   -473.23355    126060.06   -43555.185    3389.3765   -46944.562   0.30217753 
   12300    277.74781   -501.95125    126048.47   -43613.842    3390.3057   -47004.148   0.30638684 
   12400    274.02548   -493.20681    126041.55   -43570.671    3344.8693    -46915.54   0.31049794 
   12500    274.88845   -463.50677    126079.46   -43522.688    3355.4031   -46878.091   0.30770944 
   12600    278.76193   -468.66183    126090.82   -43517.525    3402.6844   -46920.209    0.2993861 
   12700    274.61381   -506.74946    126097.39   -43548.043    3352.0507   -46900.094   0.30805672 
   12800    275.48367   -508.98013    126072.37   -43578.323    3362.6686   -46940.992   0.30096881 
   12900    271.29925   -508.69456    126047.37   -43617.516    3311.5918   -46929.108   0.30689166 
   13000    275.50327   -491.16963     126017.8   -43613.993    3362.9078   -46976.901   0.30516946 
   13100    270.42065    -484.8742    126044.05   -43638.219    3300.8673   -46939.086   0.30574168 
   13200    269.13107   -490.86977    126050.53   -43673.069    3285.1261   -46958.195   0.30277073 
   13300    268.21678   -487.79223    126036.95    -43726.46     3273.966   -47000.426   0.30020077 
   13400    261.94075    -515.3765    126006.52   -43764.461     3197.358   -46961.819   0.31139272 
   13500    273.20384   -497.22299    126043.61   -43655.583    3334.8401   -46990.423   0.29731918 
   13600    272.47151   -487.60647    126039.48   -43635.611    3325.9009   -46961.512   0.31510961 
   13700    271.93923   -491.74741    126038.28   -43649.474    3319.4037   -46968.878   0.30078597 
   13800    276.33421   -490.19496    126059.43   -43615.301    3373.0507   -46988.351   0.29889289 
   13900    272.37789   -518.42819    126035.74   -43578.158    3324.7582   -46902.917   0.32153569 
   14000    277.32988   -489.75768    126050.09   -43484.429    3385.2043   -46869.633   0.29831713 
   14100    273.51332   -526.09865    126055.02    -43571.69    3338.6177   -46910.308    0.3160773 
   14200    278.80616   -484.91389    126043.07   -43564.609    3403.2242   -46967.833   0.30742184 
   14300    272.06694   -529.50416     126039.7   -43600.477    3320.9626   -46921.439   0.30353114 
   14400    269.73197   -522.69142    126028.22   -43637.938    3292.4609   -46930.399   0.31541111 
   14500    272.31051   -485.19138    126015.42   -43642.974    3323.9357    -46966.91   0.30689248 
   14600    271.25641   -474.56186    126010.01   -43636.189    3311.0689   -46947.258   0.30703743 
   14700    274.32127   -473.94719    126024.83   -43594.973    3348.4799   -46943.453   0.30653886 
   14800    275.54346   -503.81086     126046.5   -43560.638    3363.3985   -46924.037   0.30759531 
   14900    273.90376   -480.87781    126035.22   -43543.284    3343.3836   -46886.667   0.30751433 
   15000    270.89826   -481.26192    126010.71   -43606.844    3306.6972   -46913.541   0.30435246 
   15100    275.64675   -474.12137    126004.03   -43632.965    3364.6592   -46997.625   0.30705303 
   15200     273.9969   -522.74179    126006.18   -43584.664    3344.5205   -46929.185   0.30572786 
   15300     274.0872   -481.14549    126012.05   -43633.854    3345.6227   -46979.476   0.30311949 
   15400    268.06509   -513.55575    125977.99   -43670.545    3272.1143    -46942.66   0.32127318 
   15500    273.41711   -474.72653    126007.63   -43602.796    3337.4433    -46940.24   0.30050545 
   15600    276.47398   -498.93178    126075.21   -43492.289    3374.7568   -46867.046   0.31097538 
   15700    276.03158   -489.46893    126110.42   -43479.032    3369.3566   -46848.389   0.30678242 
   15800    277.20754   -501.82616    126113.69   -43495.306    3383.7108   -46879.017   0.29184687 
   15900    280.02201   -520.19909    126081.68   -43494.998    3418.0655   -46913.063   0.31202887 
   16000    274.87111   -513.60323     126073.4   -43546.708    3355.1915   -46901.899   0.30471917 
   16100    272.96591    -511.9706    126061.84   -43612.414    3331.9358    -46944.35   0.30373444 
   16200      275.196   -499.30128    126057.62   -43576.725    3359.1572   -46935.882   0.30928442 
   16300    272.55199   -525.40077    126051.17   -43589.699    3326.8833   -46916.583   0.30809746 
   16400    272.22601   -553.41316    126054.53   -43615.752    3322.9042   -46938.657   0.30578859 
   16500    274.05986   -506.41182    126081.69   -43534.506    3345.2889   -46879.795   0.30786635 
   16600    274.61773   -485.79026    126092.82   -43512.732    3352.0986   -46864.831   0.31145325 
   16700    278.02206   -530.78131    126085.32   -43535.652    3393.6532   -46929.305   0.30097753 
   16800    269.91265   -545.37152    126069.47   -43576.839    3294.6664   -46871.506   0.31316706 
   16900    272.32109   -492.25405    126074.51   -43596.701    3324.0648   -46920.766   0.31022811 
   17000    272.88473   -492.28389    126024.75   -43647.117    3330.9449   -46978.062   0.30334934 
   17100    275.09924   -503.23495     126057.4   -43582.567     3357.976   -46940.543   0.30453816 
   17200    268.65777   -510.89703    126042.41   -43638.441    3279.3488    -46917.79   0.31264432 
   17300    268.03964   -565.19142     126027.2   -43706.494    3271.8036   -46978.297   0.29951162 
   17400    266.89772   -500.35032    125992.86   -43731.758     3257.865   -46989.623   0.30833939 
   17500    271.68284   -459.88092    126014.86   -43614.527    3316.2741   -46930.801   0.30776391 
   17600    272.96193   -511.50989    126048.15   -43632.241    3331.8872   -46964.128   0.29913081 
   17700    272.99772   -527.56995    126046.51   -43661.889    3332.3241   -46994.213   0.30900277 
   17800    270.91366   -500.41569    126032.71   -43656.535    3306.8851    -46963.42   0.30997468 
   17900    270.95531   -469.99348    126064.57   -43588.248    3307.3935   -46895.641   0.30422107 
   18000    274.91089   -506.82325    126079.54   -43545.649    3355.6769   -46901.325   0.30595231 
   18100    278.68894    -528.2724    126093.84   -43515.203    3401.7935   -46916.997   0.30806854 
   18200    273.30078   -533.52916    126069.05   -43601.849    3336.0234   -46937.872   0.30529936 
   18300    275.59206   -512.01705    126062.08   -43547.952    3363.9917   -46911.944   0.30445484 
   18400    269.64037   -475.54479    126046.21   -43650.213    3291.3428   -46941.556   0.30536052 
   18500    277.71591   -493.73709    126027.84   -43614.994    3389.9162    -47004.91   0.30660394 
   18600    275.55352   -508.55692     126043.1   -43543.003    3363.5212   -46906.524   0.30752568 
   18700    273.47609    -494.2706    126031.44   -43568.852    3338.1632   -46907.015   0.31544811 
   18800     273.1574   -514.49863    126027.21   -43600.121    3334.2732   -46934.394   0.31229027 
   18900    274.84565   -494.17277    126032.48   -43571.543    3354.8806   -46926.424   0.30710318 
   19000    275.79184   -495.59352    126063.31     -43548.5    3366.4302    -46914.93   0.30949349 
   19100    276.74505   -485.99554    126060.89   -43521.895    3378.0655    -46899.96   0.30256701 
   19200    277.21961   -531.53418    126046.97     -43570.4    3383.8582   -46954.258   0.31055473 
   19300    274.45343   -525.41968    126063.17   -43431.193    3350.0931   -46781.286   0.31187784 
   19400    275.13332    -530.8432    126090.75   -43518.601    3358.3921   -46876.993   0.30367811 
   19500    277.45196   -491.60621    126087.88   -43487.554    3386.6943   -46874.248   0.30666978 
   19600     275.5273   -473.94924    126095.03   -43514.059    3363.2012    -46877.26   0.30228005 
   19700    272.09987   -525.60628    126093.98   -43523.055    3321.3645   -46844.419   0.31168478 
   19800    279.37372   -483.90211     126089.8   -43516.533    3410.1522   -46926.685   0.30180255 
   19900    272.83607   -512.30656    126076.42   -43539.792    3330.3508   -46870.143   0.31237437 
   20000    276.25112   -482.81683    126068.81   -43575.061    3372.0364   -46947.097   0.30610952 
   20100    273.08807   -502.38799    126054.18   -43617.287    3333.4269   -46950.714   0.30216031 
   20200     270.9799   -482.74557    126052.97   -43638.052    3307.6937   -46945.746   0.30473518 
   20300    274.99616   -497.66931    126052.13   -43570.938    3356.7178   -46927.656   0.30673542 
   20400    269.64431   -498.05885    126072.97   -43582.315    3291.3909   -46873.706    0.3063598 
   20500      273.797   -513.42766    126044.45   -43636.147    3342.0804   -46978.228   0.30265597 
   20600    276.88209    -490.8117    126029.76   -43664.364    3379.7382   -47044.102   0.30343514 
   20700    273.04353   -512.10905    126041.21   -43626.349    3332.8832   -46959.232   0.30182844 
   20800    271.74086   -480.02742    126060.21   -43551.021    3316.9823   -46868.003    0.3068045 
   20900    274.93784   -547.46922    126113.87   -43564.292    3356.0059   -46920.298    0.3047107 
   21000    276.31555   -527.62828    126071.21     -43601.7    3372.8229   -46974.523   0.30450747 
   21100    271.12687    -482.3761    126070.94   -43557.848    3309.4876   -46867.336   0.29939841 
   21200    272.97728   -481.38579    126055.22   -43546.698    3332.0746   -46878.773   0.31499194 
   21300    275.69282   -492.73065    126077.31   -43509.168    3365.2215   -46874.389    0.3045937 
   21400    275.17514   -497.40327    126075.28   -43558.725    3358.9026   -46917.628   0.29869565 
   21500    274.45427   -528.60219    126080.51   -43499.952    3350.1034   -46850.056    0.3222632 
   21600    283.31366   -503.34607    126106.36   -43484.768    3458.2447   -46943.012   0.29682004 
   21700    275.96401   -491.75147    126072.08   -43578.834    3368.5318   -46947.366     0.310697 
   21800    277.50494   -469.50113    126061.98    -43592.58    3387.3411   -46979.921   0.30780702 
   21900    276.54528   -484.77505    126084.85   -43604.656    3375.6271   -46980.283   0.28965239 
   22000    271.83862   -452.33961       126084   -43658.629    3318.1756   -46976.804   0.29754127 
   22100    273.07811   -515.88738    126082.48   -43635.186    3333.3053   -46968.491   0.30627112 
   22200    262.91995   -525.82475    126036.89   -43752.323    3209.3106   -46961.634   0.29756369 
   22300    267.83799   -508.13541    126034.61    -43674.07    3269.3422   -46943.412   0.30214256 
   22400    274.69095    -486.2204    126068.98   -43570.988    3352.9924    -46923.98   0.32057797 
   22500    274.26204   -507.10829    126106.46   -43580.302    3347.7569   -46928.059   0.29259611 
   22600    272.30401    -526.3852    126077.52     -43590.5    3323.8564   -46914.357   0.30420176 
   22700    269.71099    -489.2162    126090.45   -43650.293    3292.2049   -46942.498   0.31163994 
   22800    279.26331   -500.06208    126084.94   -43581.108    3408.8045   -46989.912   0.29207954 
   22900    273.45925    -490.3326    126064.63   -43609.324    3337.9577   -46947.282   0.30177555 
   23000    271.89588   -464.63938       126066   -43665.607    3318.8746   -46984.481   0.31444778 
   23100    277.38888   -485.87114    126062.98   -43588.571    3385.9244   -46974.495   0.29723603 
   23200    277.36473   -468.83476    126088.88   -43582.515    3385.6296   -46968.145   0.30046882 
   23300     275.6563   -527.14712     126097.6   -43583.995    3364.7758   -46948.771   0.31521715 
   23400    273.17117   -549.39955    126078.84   -43562.736    3334.4412   -46897.177   0.29180272 
   23500    279.36641   -502.28914    126078.87    -43546.83    3410.0629   -46956.893   0.30850908 
   23600    278.03989   -529.05575    126111.97   -43487.404    3393.8708   -46881.275   0.31427371 
   23700    280.96734   -474.32698    126087.43   -43516.524    3429.6045   -46946.128   0.29489693 
   23800     272.2603   -516.10988    126079.61   -43520.925    3323.3228   -46844.247   0.31428123 
   23900    270.63633   -494.15994    126076.87   -43610.644    3303.4999   -46914.144    0.3087619 
   24000    274.04728   -507.23438    126060.25   -43563.155    3345.1354   -46908.291   0.29555959 
   24100    274.37394   -486.65362    126067.96   -43528.943    3349.1228   -46878.066    0.3102783 
   24200    277.84789   -509.46047    126073.96   -43595.375    3391.5273   -46986.903   0.31409514 
   24300    273.67103   -487.89289    126040.26   -43632.014    3340.5428   -46972.557   0.29004238 
   24400     267.6234   -502.41626    126036.39   -43674.677    3266.7229   -46941.399   0.31634686 
   24500    274.05834   -453.64067    126010.02   -43630.848    3345.2704   -46976.118   0.31383752 
   24600    268.26396   -495.55632     126000.5   -43673.896    3274.5418   -46948.437   0.29485343 
   24700    268.64885   -512.39958    126011.25   -43679.023      3279.24   -46958.263   0.31079221 
   24800    272.92505   -546.20747    126019.22   -43651.792     3331.437   -46983.229   0.31760332 
   24900    273.62308   -531.10441     126024.4   -43671.377    3339.9574   -47011.334   0.29839816 
   25000    278.86618   -511.17312       125994   -43634.878    3403.9569   -47038.835   0.30717145 
   25100     271.6356   -519.41836     125993.7   -43680.226    3315.6974   -46995.924   0.31439807 
   25200    272.02553   -466.67633    125957.85   -43779.401     3320.457   -47099.858   0.29091525 
   25300     272.2281   -536.60333    125951.41   -43726.936    3322.9297   -47049.865    0.3142943 
   25400    272.43055   -491.34637    126009.91   -43671.395     3325.401   -46996.796   0.31539961 
   25500     271.9938   -485.02188    126005.99   -43623.865    3320.0698   -46943.934   0.29413151 
   25600    272.94909   -483.50343    126056.31   -43485.449    3331.7304   -46817.179   0.31508211 
   25700     275.6909   -506.92647    126046.65   -43600.128    3365.1981   -46965.326   0.31042993 
   25800     276.8673   -491.67456    126029.69   -43483.583    3379.5578   -46863.141   0.29823252 
   25900    279.62481   -513.96052    126055.69   -43489.863    3413.2171   -46903.081   0.30434921 
   26000    277.56887   -492.21355    126046.62   -43519.262    3388.1214   -46907.384   0.31793355 
   26100    274.29411   -525.45942    126038.88   -43538.203    3348.1484   -46886.351   0.29804131 
   26200    273.43675   -510.28063    126040.49   -43576.166     3337.683   -46913.849    0.3124481 
   26300    271.74568   -499.78493    125991.61   -43628.485    3317.0412   -46945.526    0.3121874 
   26400    273.29795    -496.8662     125995.8   -43653.277    3335.9888   -46989.266    0.2965199 
   26500    281.45082   -477.11103    126006.22   -43555.637    3435.5061   -46991.143   0.31321136 
   26600    275.50821   -507.70913     126037.5   -43521.411    3362.9681   -46884.379    0.3166833 
   26700     278.9031   -478.08533    126050.55   -43479.521    3404.4075   -46883.929   0.30239653 
   26800    274.52868   -540.87113    126048.65   -43542.338    3351.0116    -46893.35   0.31036205 
   26900    277.64792   -482.31373    126044.03   -43513.977    3389.0864   -46903.063   0.31930791 
   27000    277.60221   -485.29981    126038.96   -43511.561    3388.5283    -46900.09   0.30152671 
   27100    276.79133   -479.67287    126058.62   -43498.251    3378.6304   -46876.881    0.3067861 
   27200    277.26755   -524.50887    126047.42   -43539.874    3384.4434   -46924.317   0.31829214 
   27300    279.32735   -540.37854    126072.57   -43448.835    3409.5861   -46858.421   0.30285197 
   27400    272.27455   -522.31992    126096.51   -43481.937    3323.4967   -46805.434   0.31665236 
   27500    276.06289    -512.1403    126038.24   -43580.017    3369.7387   -46949.756   0.30924689 
   27600    271.67768   -496.15001    126002.35   -43680.633    3316.2111   -46996.844    0.3002215 
   27700    277.21603   -488.57277    125998.05   -43601.616    3383.8145    -46985.43   0.31407212 
   27800    274.62472   -537.73496    126025.81   -43521.963    3352.1839   -46874.147   0.32014503 
   27900    275.74342   -498.65926    126015.94   -43611.084    3365.8393   -46976.923   0.30210566 
   28000    269.24115   -480.29427    125996.72   -43662.714    3286.4698   -46949.183   0.31569838 
   28100    269.93749   -529.87287    126004.04   -43644.029    3294.9696   -46938.999   0.31408992 
   28200     272.6451    -514.0346    126016.82   -43627.069    3328.0199   -46955.089    0.3016018 
   28300    271.47193   -482.38127    125990.26   -43619.085    3313.6996   -46932.785   0.31626992 
   28400    274.13986   -520.39603    125992.29   -43601.483    3346.2655   -46947.749   0.31255688 
   28500    273.32032   -517.42985    126023.55   -43617.539    3336.2618   -46953.801   0.30685733 
   28600     270.7876   -514.23963    126021.71   -43638.117    3305.3464   -46943.463    0.3125253 
   28700    271.12699   -480.20228       126020   -43630.877    3309.4891   -46940.366   0.31224237 
   28800    270.02542   -503.57132    125990.47   -43649.046    3296.0429   -46945.089   0.30814537 
   28900    268.78544   -495.76564    125990.99   -43618.896    3280.9072   -46899.803   0.32273949 
   29000    272.41475   -504.64062    126021.89   -43588.342    3325.2081    -46913.55   0.31683747 
   29100     278.7637   -474.90702    126031.05    -43550.79     3402.706   -46953.496   0.30339579 
   29200    278.84532   -477.83389    126049.63   -43471.261    3403.7023   -46874.964   0.32346965 
   29300    280.01239   -472.71647    126089.44    -43500.15     3417.948   -46918.098   0.30268923 
   29400    274.54097   -541.03976    126078.99   -43548.451    3351.1617   -46899.613   0.30938887 
   29500    279.83399   -505.31517    126070.36   -43532.438    3415.7704   -46948.209   0.31467942 
   29600    274.86124   -508.71871     126043.1   -43522.851     3355.071   -46877.922   0.31226447 
   29700    271.51084   -542.21238    126046.82   -43581.003    3314.1745   -46895.177   0.31176522 
   29800    277.07924   -543.77672    126002.49   -43677.189    3382.1448   -47059.333   0.31551926 
   29900    271.99279   -471.77842    125995.77   -43626.712    3320.0575   -46946.769    0.3083515 
   30000    272.11655   -489.52354    125972.13   -43673.995    3321.5681   -46995.563    0.3042485 
   30100    275.54364   -486.04429    125989.78   -43575.614    3363.4006   -46939.014   0.32304168 
   30200    274.89456   -483.65738    126031.66   -43631.254    3355.4777   -46986.732   0.30007277 
   30300    268.32985   -534.16886    126022.41   -43626.642    3275.3461   -46901.988   0.31515022 
   30400     273.7194   -515.97566    126023.85   -43597.438    3341.1332   -46938.571   0.31897561 
   30500    266.11571   -519.25493     125978.4   -43703.588    3248.3194   -46951.907   0.31396702 
   30600    269.27105   -496.50868    125990.34   -43644.592    3286.8347   -46931.426   0.31101477 
   30700    270.78202    -498.6815     126019.6   -43676.991    3305.2783   -46982.269   0.31585514 
   30800    274.58417   -486.96032    126031.02   -43623.892    3351.6889   -46975.581   0.30527277 
   30900    275.11646   -493.09193    126035.03    -43560.76    3358.1863   -46918.947   0.31062136 
   31000    272.98412   -509.30298    126043.99   -43584.943    3332.1581   -46917.101   0.32101308 
   31100     276.0407   -502.05643    126032.35   -43597.019     3369.468   -46966.487   0.30123961 
   31200    275.69325   -475.94311    126008.91   -43588.347    3365.2268   -46953.574   0.31091107 
   31300    277.85524   -504.01771    126048.96   -43492.667     3391.617   -46884.284   0.32346976 
   31400    269.66412   -489.73562    126042.22   -43563.547    3291.6328    -46855.18   0.31129161 
   31500     274.1884   -484.50297    126037.71   -43524.911     3346.858   -46871.769   0.31298521 
   31600    278.61779   -480.43663    126018.35    -43554.69    3400.9249   -46955.615   0.31549386 
   31700    279.57633   -504.60608     126023.8   -43549.992    3412.6253   -46962.617   0.30651155 
   31800     275.2681    -474.3424     126079.3    -43539.96    3360.0373   -46899.998   0.30885714 
   31900     274.7365   -522.20458     126052.7    -43592.58    3353.5483   -46946.128   0.31329875 
   32000     277.5975   -496.97888    126049.12   -43583.115    3388.4709   -46971.586    0.2975563 
   32100    271.19421   -507.82499    126043.97   -43607.905    3310.3097   -46918.214   0.30940302 
   32200    268.93404   -541.89187    126032.99   -43713.281     3282.721   -46996.002    0.3076542 
   32300    268.35157   -487.26803    126038.66   -43682.794    3275.6112   -46958.405   0.30635053 
   32400    267.71124   -513.26048    126035.26   -43694.815    3267.7951   -46962.611   0.30172781 
   32500     273.5754   -492.42497    126043.03   -43604.277    3339.3754   -46943.653   0.31064655 
   32600    278.95853   -488.15996    126058.47   -43552.246    3405.0842    -46957.33   0.30267592 
   32700    272.53279   -516.97804    126063.93   -43645.369    3326.6489   -46972.018   0.30477282 
   32800    278.65409   -483.05499    126061.48   -43526.456    3401.3681   -46927.824   0.31542928 
   32900    275.58518   -515.66955    126051.92   -43566.738    3363.9077   -46930.645   0.30150974 
   33000    274.40727   -529.43778    126046.44   -43557.674    3349.5296   -46907.203   0.31137084 
   33100    269.17672   -508.14739    126032.87   -43575.522    3285.6833   -46861.205   0.32060694 
   33200    281.37454   -468.89685    126056.34   -43593.232     3434.575   -47027.807   0.29125578 
   33300    277.04808   -490.94889    126068.88   -43567.871    3381.7644   -46949.636   0.30943663 
   33400    271.54342   -514.51246    126046.77   -43600.965    3314.5722   -46915.537   0.31621255 
   33500    271.26996   -502.28907     125995.8   -43651.267    3311.2343   -46962.502   0.30594914 
   33600    275.84093   -475.81281    126038.17   -43628.878    3367.0295   -46995.907    0.3112457 
   33700    273.59321   -545.05844    126075.45   -43591.107    3339.5929     -46930.7   0.30564168 
   33800    277.77643   -470.76195    126133.16   -43461.205    3390.6549    -46851.86    0.2965619 
   33900    277.40499    -506.0029    126124.97   -43447.408     3386.121   -46833.529   0.31891526 
   34000    280.71334   -539.38117    126066.51   -43596.824    3426.5041   -47023.329    0.3029717 
   34100    273.73317   -505.69528    126072.62   -43593.642    3341.3013   -46934.943   0.30294203 
   34200    272.39903   -477.86098    126056.84   -43627.419    3325.0162   -46952.435   0.30873046 
   34300    267.41207   -555.37522     126055.6   -43671.442    3264.1433   -46935.585   0.31273606 
   34400    271.97057   -499.24634    126022.34   -43644.021    3319.7862   -46963.807   0.30442996 
   34500    273.14534   -504.10076     126055.1    -43520.65     3334.126   -46854.776   0.31535669 
   34600    277.62052   -475.35367     126080.8   -43476.402    3388.7519   -46865.153   0.31028858 
   34700    277.85687   -472.03142    126080.33   -43573.301    3391.6369   -46964.938   0.29361999 
   34800     270.2629   -504.19195    126014.47   -43621.972    3298.9417   -46920.913   0.32110234 
   34900    276.14708   -445.70573    126021.16   -43580.522    3370.7665   -46951.288   0.30868557 
   35000    272.28953    -512.1912       126018   -43598.283    3323.6796   -46921.963   0.30452318 
   35100    276.41474   -491.97201    126035.46   -43568.071    3374.0336   -46942.105   0.31039075 
   35200    274.25333   -483.44448    126023.33   -43521.111    3347.6505   -46868.761   0.31617017 
   35300    274.25881    -469.5491    126023.62   -43551.087    3347.7174   -46898.805   0.29998674 
   35400    276.30438    -529.0125    126041.03   -43586.069    3372.6865   -46958.756   0.31211597 
   35500    276.39652   -485.12643    126043.15   -43602.758    3373.8112    -46976.57   0.30990925 
   35600    275.52315   -507.86316    126067.34   -43585.219    3363.1505   -46948.369   0.30172137 
   35700    271.43777   -504.77421    126074.66   -43547.798    3313.2827    -46861.08    0.3161003 
   35800    281.21116   -490.37743    126089.79   -43420.476    3432.5807   -46853.057   0.30554912 
   35900    278.10594   -486.29296    126091.94   -43517.787    3394.6771   -46912.464   0.30003074 
   36000    274.68041   -471.27343     126042.6   -43581.668    3352.8637   -46934.532   0.30530589 
   36100    270.14956   -488.89778    126060.59   -43629.035    3297.5583   -46926.593   0.30855744 
   36200    274.72768   -519.27412    126053.11   -43608.442    3353.4406   -46961.882   0.29573101 
   36300    275.73308    -444.6349    126002.69   -43605.689     3365.713   -46971.402   0.30931831 
   36400    275.06326   -509.43711    125994.64   -43619.841    3357.5369   -46977.377   0.31898549 
   36500    271.67088   -487.64242    125995.81   -43629.501    3316.1281   -46945.629    0.2992906 
   36600    272.87341   -497.13573    126009.26   -43590.978    3330.8067   -46921.784   0.31731908 
   36700    275.97654   -465.09402    126035.23   -43635.692    3368.6847   -47004.377   0.30286588 
   36800    271.28755   -497.96215    126013.63   -43694.759     3311.449   -47006.208   0.30337733 
   36900     269.7226   -504.32684    126010.35   -43640.829    3292.3466   -46933.175   0.31307665 
   37000    275.05005   -500.24041    126028.25   -43622.803    3357.3756   -46980.179   0.30753238 
   37100    268.88298   -567.12027    126015.14   -43647.236    3282.0978   -46929.334   0.30566444 
   37200    273.80636   -513.08744    126019.54   -43655.708    3342.1946   -46997.902   0.31217532 
   37300    269.19992   -543.07616    126026.69   -43664.253    3285.9665   -46950.219   0.31273135 
   37400    269.98017   -481.47275    126037.71   -43695.164    3295.4905   -46990.654   0.28951701 
   37500    271.44356    -520.4924       126017   -43655.246    3313.3534   -46968.599   0.31346666 
   37600    273.07892   -493.88834    126024.61   -43679.835    3333.3152   -47013.151   0.30028892 
   37700    268.35807   -524.41302    126005.17   -43779.696    3275.6905   -47055.386   0.29717303 
   37800      263.006   -510.93384     125983.9   -43809.418    3210.3609   -47019.779   0.30205215 
   37900    271.95764   -477.92798    125975.18   -43699.609    3319.6284   -47019.237   0.30812374 
   38000     274.1486   -475.21843    126054.58   -43619.316    3346.3722   -46965.688   0.29788337 
   38100     273.1468   -488.97911    126058.81   -43614.282    3334.1438   -46948.426   0.30213047 
   38200    276.22938   -492.91949    126061.33   -43568.204     3371.771   -46939.975   0.30964048 
   38300    271.41441   -511.31114    126061.84   -43597.013    3312.9975   -46910.011   0.29627491 
   38400    275.75972   -485.02337     126058.7   -43564.024    3366.0382   -46930.062   0.30939545 
   38500    277.99746   -454.49535    126043.57   -43584.476    3393.3529   -46977.829   0.30373307 
   38600    277.60561   -513.39069    126059.74   -43579.712    3388.5698   -46968.282   0.29945012 
   38700    275.79811   -499.20435    126057.33   -43549.828    3366.5068   -46916.335   0.30533291 
   38800    273.22759   -486.14165     126033.1   -43591.321    3335.1299   -46926.451    0.3098729 
   38900    280.38758   -501.18953    126083.55   -43498.226    3422.5277   -46920.754   0.30776693 
   39000    277.62199   -483.51732    126077.16   -43539.324    3388.7698   -46928.094   0.30134752 
   39100    272.40975   -497.28766    126077.94   -43562.429     3325.147   -46887.576   0.30979363 
   39200    269.30699   -478.59948    126024.25   -43668.086    3287.2734   -46955.359   0.30257715 
   39300    267.65475   -493.51362    125972.04   -43714.092    3267.1056   -46981.197   0.31024365 
   39400    276.98205   -448.67203    126040.55   -43560.342    3380.9584     -46941.3   0.30053905 
   39500    273.15701   -481.91641    126061.79   -43586.496    3334.2684   -46920.764   0.29978023 
   39600    275.08677   -508.68945    126078.89   -43561.656    3357.8239    -46919.48   0.30426061 
   39700    271.27357   -546.31367    126060.17   -43569.899    3311.2784   -46881.178   0.31146356 
   39800     272.5987   -487.65032    126060.85   -43604.792    3327.4535   -46932.245   0.29975063 
   39900    271.54488   -487.55178    126039.16   -43554.962    3314.5901   -46869.552    0.3082954 
   40000    271.69372   -461.73001    126038.83   -43589.577    3316.4069   -46905.984   0.30891003 
   40100    271.12224   -537.72866    126022.69    -43607.69    3309.4311   -46917.121   0.30784545 
   40200    273.05183   -511.04565    126037.15    -43591.97    3332.9846   -46924.954    0.3114822 
   40300    273.47603   -535.19807    126017.41   -43650.896    3338.1625   -46989.058   0.30645209 
   40400    272.02072   -515.24776    125996.34   -43683.941    3320.3984   -47004.339   0.30691704 
   40500    279.21145   -504.32891    125987.64    -43583.53    3408.1714   -46991.702   0.31053855 
   40600    272.44589   -535.26281    126001.63   -43588.841    3325.5882   -46914.429   0.31465727 
   40700      272.601   -506.92179    125976.01   -43652.987    3327.4816   -46980.468   0.30699934 
   40800     274.8664   -476.11932    125995.92    -43565.78     3355.134   -46920.914   0.30692121 
   40900    275.99717   -514.21399    125971.47   -43625.664    3368.9366   -46994.601   0.31361605 
   41000    270.09562   -491.79073    125982.26   -43628.181    3296.8998   -46925.081   0.31305542 
   41100    270.12095   -528.73431    125956.79   -43629.847     3297.209   -46927.056   0.31580856 
   41200    275.69909   -492.95442    126020.65   -43538.697    3365.2982   -46903.995   0.30981106 
   41300    270.22878   -531.28591    126019.77   -43582.872    3298.5253   -46881.397   0.31001729 
   41400     278.1522   -470.46343    125994.31   -43566.197    3395.2417   -46961.439   0.30810965 
   41500    272.91372   -512.06964    126001.94   -43535.293    3331.2987   -46866.591   0.31659541 
   41600    278.12173    -472.2805    126004.22   -43555.369    3394.8699   -46950.239   0.30345136 
   41700    267.46296   -547.30204    125974.15   -43655.017    3264.7645   -46919.781   0.31797833 
   41800    278.38025    -450.5887    125977.58   -43587.807    3398.0254   -46985.832   0.31228933 
   41900    273.99059   -503.80278     125961.7   -43653.758    3344.4434   -46998.202   0.30668268 
   42000    274.72848   -448.94175    125998.62   -43631.785    3353.4505   -46985.235   0.31022264 
   42100    269.83429   -519.35535    125996.06   -43701.492    3293.7099   -46995.202   0.30323136 
   42200    275.60307    -437.6725    126004.61   -43647.905     3364.126   -47012.031   0.30064373 
   42300    275.05884   -475.99038    126010.35   -43631.196    3357.4829   -46988.679   0.30639693 
   42400    272.77166   -489.27781    126014.57   -43635.721    3329.5647   -46965.286   0.30702476 
   42500    271.60488   -518.07102    126006.57   -43611.459    3315.3225   -46926.782   0.30683597 
   42600    269.98891   -500.78593    126011.43   -43625.744    3295.5973   -46921.341   0.30410055 
   42700    265.88181   -516.23708    125984.33   -43705.141    3245.4643   -46950.606   0.31267775 
   42800    272.08156   -534.47967    125999.13   -43635.057     3321.141   -46956.198   0.30428575 
   42900     269.3292   -514.89345    125999.42   -43662.283    3287.5446   -46949.828   0.30785163 
   43000    266.82604   -497.20477    125984.09   -43642.826    3256.9899   -46899.816   0.31970574 
   43100    273.21415   -482.57641    126027.51   -43602.491    3334.9659   -46937.457   0.30114127 
   43200    273.04138   -532.01828    126025.49   -43611.256     3332.857   -46944.113   0.30942843 
   43300    273.59434    -500.9194     126000.3   -43655.115    3339.6066   -46994.722   0.31286335 
   43400    274.45049   -481.79009     125990.6   -43580.445    3350.0572   -46930.502   0.30592092 
   43500    271.28354   -483.23197    126031.79   -43590.344    3311.4001   -46901.744   0.31651045 
   43600    274.21785   -505.86419    126000.21   -43612.326    3347.2175   -46959.543    0.3133288 
   43700    273.34111   -510.26641     125970.1   -43689.567    3336.5156   -47026.083   0.30568092 
   43800     269.2749   -529.25189    125963.56   -43704.843    3286.8817   -46991.725   0.31390233 
   43900    271.90374   -493.55643    125992.99    -43628.45    3318.9705   -46947.421   0.31265258 
   44000    270.29735   -486.44837    125982.36   -43717.904    3299.3622   -47017.266   0.30137779 
   44100    268.71248   -480.71462     125986.1   -43720.484    3280.0167     -47000.5   0.30502842 
   44200    269.86165   -493.82111    125997.27   -43643.324    3294.0439   -46937.367   0.31748822 
   44300     268.9347   -506.11077    125976.76   -43641.425    3282.7291   -46924.154   0.31196775 
   44400     268.8328   -514.14929    125975.93   -43676.672    3281.4853   -46958.157   0.31238799 
   44500    275.66483   -492.47826    125999.31   -43661.356      3364.88   -47026.236   0.31793825 
   44600    269.90065   -503.59389    125989.38   -43649.225    3294.5199   -46943.745   0.30855902 
   44700    274.48064   -488.29281    126000.68   -43635.216    3350.4252   -46985.641   0.31147694 
   44800    272.40324   -534.94397     125990.4   -43635.988    3325.0676   -46961.056   0.32091868 
   44900    276.37102   -491.96723    126032.23   -43611.637       3373.5   -46985.137   0.29936064 
   45000    270.14553   -492.67154    126029.28     -43617.7     3297.509   -46915.209   0.30981104 
   45100    277.56375   -496.08219    126073.02   -43527.696     3388.059   -46915.755    0.3058081 
   45200     273.7823   -497.23256    126064.48   -43570.026     3341.901   -46911.927   0.30048299 
   45300    269.94112   -474.63807    126043.43   -43601.209    3295.0139   -46896.223   0.31092251 
   45400    276.57534   -491.15425    126046.88   -43615.708     3375.994   -46991.702   0.30847744 
   45500    273.54524   -525.14091    126043.78   -43581.629    3339.0074   -46920.637   0.30544377 
   45600     277.2029   -495.31887    126073.32    -43559.06    3383.6542   -46942.714   0.30513727 
   45700    276.44708   -496.75383    126078.98   -43537.889    3374.4283   -46912.317   0.30266958 
   45800    274.92315    -521.8855    126089.07   -43585.501    3355.8267   -46941.328   0.29995197 
   45900     276.4366   -472.91227    126104.79   -43515.286    3374.3004   -46889.587   0.30482307 
   46000    273.82883   -528.08743    126110.15   -43548.495    3342.4689   -46890.964   0.30462852 
   46100    276.58931   -481.82712    126119.56   -43467.783    3376.1645   -46843.947   0.29968308 
   46200    273.24654   -501.53949    126112.23   -43522.822    3335.3613   -46858.184   0.30731371 
   46300    280.02249   -454.49544    126102.62   -43493.682    3418.0713   -46911.754   0.30817458 
   46400    277.66092   -529.37239    126076.21   -43550.986     3389.245   -46940.231   0.30326034 
   46500    279.55652   -452.55258     126075.8   -43489.896    3412.3836   -46902.279   0.30804124 
   46600    274.91889   -471.55419    126058.86   -43583.986    3355.7746   -46939.761    0.3077342 
   46700    277.32546   -535.21643    126064.26   -43522.717    3385.1502   -46907.867   0.30552107 
   46800     278.0328   -496.28236    126092.77   -43517.033    3393.7843   -46910.817   0.31249095 
   46900    282.84223   -463.28151    126042.34   -43535.425    3452.4902   -46987.915     0.299826 
   47000    276.51532   -491.93155    126060.67    -43597.26    3375.2613   -46972.521   0.30281542 
   47100     269.8819   -501.36039    126028.91   -43604.809    3294.2911     -46899.1   0.31839268 
   47200    272.82553   -512.06796    126016.83    -43613.48    3330.2222   -46943.702   0.30180631 
   47300    274.23397   -504.79828    126011.26   -43673.255    3347.4143   -47020.669   0.30993544 
   47400     274.5516   -484.10746    125997.83   -43626.557    3351.2914   -46977.848   0.31610057 
   47500    271.67437   -533.48813    126007.59   -43652.866    3316.1707   -46969.037   0.31204356 
   47600    271.53987   -541.18987    126013.06       -43630     3314.529   -46944.529   0.31446224 
   47700    272.08789   -521.69245    126007.68   -43573.443    3321.2183   -46894.662   0.31745134 
   47800    276.66389   -454.48593     126023.8   -43613.144    3377.0749   -46990.219   0.30643558 
   47900    274.23456   -504.81495    125999.68   -43662.464    3347.4214   -47009.885   0.30790774 
   48000    274.62047    -474.5437    126027.39   -43621.178     3352.132    -46973.31   0.31365156 
   48100    274.68528   -462.84147    126038.88   -43671.696    3352.9231   -47024.619    0.2947034 
   48200    273.31501   -501.86025     126026.6   -43659.417     3336.197   -46995.614   0.30538505 
   48300    272.85472   -479.44073    126050.77   -43631.701    3330.5785   -46962.279   0.31811338 
   48400    268.49921    -530.2691    126058.11    -43629.08    3277.4134   -46906.494   0.30731509 
   48500     271.8557   -492.83568    126024.88   -43705.372     3318.384   -47023.756   0.30684964 
   48600    272.37053   -499.08555    125999.15    -43703.95    3324.6683   -47028.618   0.30923177 
   48700    272.58776   -471.68827    126026.74   -43610.241      3327.32   -46937.561   0.30632954 
   48800    269.71508   -516.33466    126057.16   -43623.655    3292.2548    -46915.91   0.31411455 
   48900    273.59048   -471.37161    126025.77   -43595.932    3339.5595   -46935.491   0.31089065 
   49000    272.82003   -463.20187    126021.19    -43644.16    3330.1551   -46974.315   0.30385413 
   49100    276.67135   -500.16187    126038.41   -43583.473    3377.1659   -46960.639   0.31832307 
   49200    271.90731   -538.54578     126076.3   -43590.559    3319.0141   -46909.573   0.31484063 
   49300    270.23837   -519.10186    126071.76   -43647.622    3298.6423   -46946.265   0.30138872 
   49400    267.16759   -458.90102    126034.94   -43691.667    3261.1591   -46952.826   0.31068802 
   49500    274.82831   -491.79766    126019.66    -43617.75     3354.669   -46972.419   0.31375102 
   49600    276.81098   -527.78637    126031.24   -43644.967    3378.8703   -47023.837   0.30613606 
   49700    271.31921   -497.52478    126029.99    -43655.78    3311.8354   -46967.615   0.30538761 
   49800    276.45057    -475.6845    126008.17   -43632.825     3374.471   -47007.296   0.30973059 
   49900    276.85481   -476.80904    126000.97    -43593.26    3379.4053   -46972.665   0.30484349 
   50000    276.22723   -456.67338    126029.22   -43606.291    3371.7448   -46978.035   0.30642146 
   50100    278.17687   -485.61679    126088.02   -43494.079    3395.5429   -46889.621   0.31293668 
   50200    277.69048   -513.57464    126082.38   -43570.852    3389.6059   -46960.458   0.29929633 
   50300    270.99772   -560.28102    126076.81   -43580.248    3307.9112   -46888.159   0.31079066 
   50400    274.88769   -481.25129     126083.7   -43596.015    3355.3939   -46951.409   0.30969729 
   50500    281.24933   -503.60547    126072.93   -43543.819    3433.0467   -46976.866   0.30034824 
   50600    275.38022   -477.26255    126105.52   -43438.995    3361.4059   -46800.401   0.30994991 
   50700    265.53837   -546.36253    126086.77     -43664.7    3241.2721   -46905.972   0.30479128 
   50800    268.94749   -487.47871     126037.6   -43676.586    3282.8852   -46959.472   0.30717202 
   50900    271.11358   -513.42658    126055.74   -43688.455    3309.3254    -46997.78   0.31589133 
   51000    273.84275   -505.42604    126039.14    -43652.68    3342.6388   -46995.318   0.30497232 
   51100    270.98581   -529.03273    126037.59   -43655.575    3307.7658   -46963.341    0.3089545 
   51200      268.168   -515.55114    126020.52     -43698.5    3273.3705    -46971.87   0.31203237 
   51300    273.81838   -490.09456    126004.77   -43717.998    3342.3413    -47060.34   0.30904887 
   51400    276.53115   -466.37232    125993.32    -43649.39    3375.4545   -47024.845   0.31036162 
   51500    274.12826   -520.05483    126002.18    -43686.72    3346.1239   -47032.844   0.30868208 
   51600    271.79796   -490.90055    126000.69   -43630.426    3317.6793   -46948.105   0.31963494 
   51700    275.67777    -466.4719    126027.12   -43573.079    3365.0379   -46938.117   0.31105007 
   51800    274.54752   -493.46231    126035.53   -43565.458    3351.2415   -46916.699   0.31581035 
   51900    273.49527   -517.40182    126016.88     -43618.7    3338.3974   -46957.097   0.31646812 
   52000    275.00706   -522.30627    126014.54   -43619.411    3356.8509   -46976.261   0.30543661 
   52100    269.21951   -467.05171    126027.53   -43692.797    3286.2057   -46979.002   0.31910134 
   52200     266.9468   -502.61886    125974.24   -43721.409     3258.464   -46979.873   0.31138933 
   52300    268.74748   -497.58833     125970.8   -43718.737    3280.4439    -46999.18   0.30754991 
   52400    262.92889    -501.0568    125934.68   -43792.546    3209.4197   -47001.966   0.32387516 
   52500    267.43335   -484.75626    125962.15   -43680.939    3264.4031   -46945.342   0.31372938 
   52600    273.23604   -488.95423    126026.87   -43607.228     3335.233   -46942.461   0.30920521 
   52700    270.48929   -474.74239    126032.53   -43619.259    3301.7051   -46920.964    0.3158659 
   52800     278.7184   -517.50706    126067.45   -43522.114    3402.1531   -46924.267   0.30974272 
   52900    276.34375   -463.35808    126045.29   -43559.432    3373.1671     -46932.6   0.31068889 
   53000    277.47801   -475.12004    126077.18   -43530.961    3387.0124   -46917.974   0.30907987 
   53100    271.14506   -526.09428    126029.05   -43643.653    3309.7097   -46953.363    0.3127589 
   53200    270.84511   -513.76865    126002.75   -43690.628    3306.0484   -46996.676   0.30522831 
   53300    268.74866   -494.62848    125977.79   -43681.181    3280.4582   -46961.639   0.31783106 
   53400    272.05985   -553.17903    126009.69   -43605.799    3320.8761   -46926.675   0.32012373 
   53500    276.09116   -453.47431    126021.15   -43571.045    3370.0839   -46941.129   0.29615422 
   53600    273.72971   -515.48563    126020.66   -43654.023    3341.2591   -46995.282   0.31580385 
   53700    274.48794   -482.93749    126034.07   -43614.063    3350.5144   -46964.577   0.31122957 
   53800    269.13537   -483.95302    125994.15   -43645.016    3285.1785   -46930.194   0.30409556 
   53900    267.17458   -529.33593    126022.64   -43657.372    3261.2443   -46918.617   0.32112974 
   54000    273.41034   -533.46423    126006.77   -43682.129    3337.3607    -47019.49   0.31013575 
   54100     274.0363    -493.4514    126013.71   -43631.497    3345.0014   -46976.498   0.31352532 
   54200    277.22392   -488.16638    126011.57    -43582.78    3383.9108   -46966.691   0.31991794 
   54300    276.68919   -485.95007    126061.34    -43522.42    3377.3836   -46899.803   0.31760682 
   54400    279.71456   -476.75444    126084.99   -43482.992    3414.3126   -46897.304   0.30208283 
   54500    274.35353   -487.78959    126070.62   -43535.852    3348.8736   -46884.725   0.32041426 
   54600     273.6811   -482.60427    126101.42   -43524.733    3340.6657   -46865.399   0.31178412 
   54700    277.85495   -507.03103    126097.55    -43557.79    3391.6134   -46949.404   0.29868457 
   54800    274.97345   -503.48995    126111.62   -43537.711    3356.4406   -46894.152   0.31731742 
   54900    270.82867    -540.2174    126095.91   -43547.284    3305.8477   -46853.132   0.31435463 
   55000    276.02713   -508.12569    126069.33   -43562.108    3369.3024    -46931.41   0.30466675 
   55100    279.11134   -478.30771    126069.53   -43568.123    3406.9495   -46975.072   0.31138042 
   55200      270.591   -529.35271    126035.56   -43699.657    3302.9466   -47002.603   0.31254973 
   55300     270.9944   -488.79708    126007.14   -43743.576    3307.8707   -47051.446   0.29436368 
   55400    271.16082   -480.91913    126015.39   -43686.097    3309.9021   -46995.999   0.32129766 
   55500    275.54516   -486.43863    126015.74   -43684.132    3363.4192   -47047.551   0.31257172 
   55600    275.70768   -458.36833    126058.71   -43578.207    3365.4029    -46943.61    0.2956558 
   55700    272.78576   -471.00833    126076.72   -43529.705    3329.7368   -46859.442   0.32251847 
   55800    279.24229   -485.94828    126073.62   -43516.194    3408.5479   -46924.742   0.31919472 
   55900    275.43398   -530.58219    126092.03   -43549.582     3362.062   -46911.644   0.30848876 
   56000    278.52805   -492.54063    126088.89    -43549.92    3399.8296   -46949.749   0.31876536 
   56100    278.80061   -471.75945    126100.93   -43534.176    3403.1565   -46937.333   0.30890394 
   56200    275.02017    -557.1001    126093.77    -43556.37    3357.0109   -46913.381   0.30311886 
   56300    270.74359   -493.51629    126072.98   -43636.073    3304.8092   -46940.882   0.31335254 
   56400    267.83823   -492.92056    126057.18   -43667.591    3269.3452   -46936.936   0.31087097 
   56500    267.11449   -469.98031    126030.58   -43722.297    3260.5109   -46982.807   0.29911053 
   56600    262.93209   -527.13862    126022.61   -43766.398    3209.4588   -46975.856   0.31449301 
   56700    271.93096   -450.41127    126009.19    -43720.29    3319.3028   -47039.593   0.31134946 
   56800    275.13893   -492.35183    126033.99   -43623.295    3358.4606   -46981.755    0.2979834 
   56900     267.9577   -510.25358    126021.16   -43723.236    3270.8034   -46994.039    0.3142388 
   57000    266.14699   -541.53692    125996.78   -43738.458    3248.7012   -46987.159   0.31922463 
   57100    277.74042   -483.57675    126032.46   -43633.234    3390.2154    -47023.45   0.29342184 
   57200    275.02764   -491.89605    126075.95   -43601.034    3357.1021   -46958.136   0.31726052 
   57300     267.7155   -486.92275    126052.05   -43719.799    3267.8471   -46987.646   0.30378521 
   57400    271.05656   -531.99224    126065.06   -43635.302    3308.6295   -46943.932    0.3017709 
   57500    273.35862   -552.31532    126060.64   -43623.696    3336.7293   -46960.426   0.32058054 
   57600    270.40313   -511.09586    126022.25   -43695.785    3300.6534   -46996.438   0.31040441 
   57700    270.13485   -476.38926    126027.07   -43644.114    3297.3787   -46941.493   0.30148393 
   57800    267.66843   -507.18031    126052.97   -43576.397    3267.2726   -46843.669   0.31106434 
   57900    273.54284   -508.27715    126037.98   -43641.435     3338.978   -46980.413   0.31833148 
   58000    269.90324    -507.9508    126040.37   -43573.719    3294.5516   -46868.271    0.3022585 
   58100    272.85557   -493.09371    126039.53   -43631.245    3330.5889   -46961.834   0.30347078 
   58200    280.53532   -501.36669    126047.29   -43487.827    3424.3312   -46912.159   0.32178785 
   58300    276.49664   -485.40147    126056.22    -43553.38    3375.0333   -46928.413    0.2990853 
   58400    273.92755    -502.1221    126052.88   -43596.735     3343.674   -46940.409   0.31110625 
   58500    275.10309   -509.36417    126052.72   -43617.781    3358.0231   -46975.804   0.31196918 
   58600    269.87316   -479.28948    126049.84   -43661.851    3294.1843   -46956.035   0.29962172 
   58700    270.19594   -490.85512    126043.16   -43618.389    3298.1243   -46916.513    0.3158712 
   58800    272.35677   -476.93611    126067.67    -43631.32    3324.5003    -46955.82   0.30604543 
   58900    275.10644   -506.58551    126082.39   -43576.317     3358.064   -46934.381   0.29691278 
   59000    273.35552   -479.11712    126114.78   -43498.056    3336.6915   -46834.747    0.3161795 
   59100    278.18384   -507.05879    126128.29   -43518.086     3395.628   -46913.714   0.30788655 
   59200    276.34656   -517.80519    126100.55   -43590.027    3373.2014   -46963.229   0.29910816 
   59300    272.27687   -517.82228    126073.25    -43604.54    3323.5251   -46928.065    0.3142544 
   59400    272.40724   -480.62526    126064.91   -43585.752    3325.1164   -46910.868   0.30793393 
   59500    267.67457   -523.53752    126063.48   -43681.955    3267.3475   -46949.303   0.30570882 
   59600    269.30113   -506.67563    126047.58   -43630.641    3287.2019   -46917.843   0.30897598 
   59700     269.0691   -515.52514     126069.8   -43580.836    3284.3697   -46865.206   0.31710599 
   59800     269.6721   -485.21872    126038.89   -43706.736    3291.7301   -46998.466   0.29653695 
   59900    271.60386   -486.89308    126065.41   -43708.363      3315.31   -47023.673   0.30335282 
   60000    269.34226   -473.14635    126050.52   -43655.943     3287.704   -46943.647   0.31532573 
   60100    273.45416   -476.86661     126037.3   -43647.144    3337.8955    -46985.04   0.29369749 
   60200    271.38103   -507.62225    126044.73   -43611.898      3312.59   -46924.488    0.3145718 
   60300    277.73725   -465.99156    126096.04   -43556.599    3390.1767   -46946.775   0.31393268 
   60400    280.02935   -480.79358    126101.72    -43517.68    3418.1551   -46935.835   0.29271128 
   60500    277.75435   -539.09457    126106.07   -43514.979    3390.3855   -46905.364   0.31307994 
   60600    270.26649   -521.60874    126057.86   -43588.056    3298.9856   -46887.041   0.31683986 
   60700    280.38583   -527.77455    126078.89   -43463.084    3422.5064    -46885.59   0.30300158 
   60800    275.87422    -494.7814    126101.14   -43460.592    3367.4358   -46828.028   0.31560493 
   60900    271.48508   -512.68192    126070.73   -43507.093    3313.8601   -46820.953   0.31744361 
   61000    276.24516   -515.04342    126067.26   -43592.956    3371.9636    -46964.92   0.29992252 
   61100    276.26433   -509.37523    126068.51   -43532.659    3372.1977   -46904.856   0.31194775 
   61200    272.90975   -523.84806    126064.96   -43554.762    3331.2502   -46886.012   0.31505881 
   61300    276.51572   -530.54377    126073.09   -43574.229    3375.2662   -46949.495   0.30029487 
   61400    273.99952   -514.10948    126071.34   -43597.762    3344.5524   -46942.314   0.30733247 
   61500    275.35891   -522.06341    126069.12   -43591.533    3361.1457   -46952.678   0.31374217 
   61600    273.07026   -510.13579    126038.74   -43638.811    3333.2095    -46972.02   0.30580707 
   61700    276.68676   -523.97818    126028.07   -43656.139     3377.354   -47033.493   0.30879749 
   61800    266.44239   -516.12115    125999.76   -43649.039     3252.307   -46901.346   0.31698819 
   61900    275.69531   -427.87355    126022.13   -43569.888    3365.2519   -46935.139   0.29893931 
   62000    276.23448   -479.22974    126005.77   -43584.443    3371.8333   -46956.277   0.31632229 
   62100    267.18761   -560.92828    125992.35   -43609.888    3261.4034   -46871.292   0.31759921 
   62200    278.98525   -496.06418    125987.96   -43526.038    3405.4103   -46931.449   0.30238046 
   62300    274.37027   -491.14062    126001.08   -43628.253     3349.078    -46977.33   0.32375219 
   62400     273.5796   -495.80521    126023.98   -43627.833    3339.4268    -46967.26   0.30691348 
   62500     267.9213   -514.88815    126038.97    -43630.18    3270.3592   -46900.539   0.30464229 
   62600    271.78447   -503.66533    126034.18   -43654.138    3317.5146   -46971.653   0.32111064 
   62700    271.50654   -522.84074    126007.36   -43646.509    3314.1221   -46960.631   0.30499523 
   62800    269.71695   -491.88124    125996.99   -43652.663    3292.2776   -46944.941   0.30709786 
   62900    273.30114   -464.78303    126023.04   -43600.131    3336.0277   -46936.159   0.31311499 
   63000    273.22017   -501.81004     126030.2   -43640.447    3335.0393   -46975.486   0.30349961 
   63100    266.38505   -528.98596    126014.86   -43694.141     3251.607   -46945.748   0.30593521 
   63200    271.99493    -470.3606    126014.85   -43572.701    3320.0835   -46892.784   0.31894526 
   63300    269.97137   -553.39577    126022.29   -43657.215    3295.3832   -46952.598   0.31813785 
   63400    268.64114   -538.58681    126020.31    -43725.09    3279.1459   -47004.235   0.29923724 
   63500    269.41791   -475.76385    126011.41   -43674.606    3288.6274   -46963.233   0.31924075 
   63600      267.835   -526.57193    126014.64   -43745.066    3269.3058   -47014.372   0.30517502 
   63700     272.6676    -483.4332    125996.45   -43758.272    3328.2944   -47086.566   0.29582901 
   63800    267.62626   -504.31222    125980.19   -43784.596    3266.7578   -47051.354   0.31639519 
   63900    268.31415   -516.96982    125994.54   -43686.299    3275.1545   -46961.454   0.30617914 
   64000    275.14552   -494.72996       126020   -43614.069     3358.541    -46972.61   0.30428668 
   64100    271.36918   -525.01147    126055.95   -43582.467    3312.4454   -46894.913   0.31847849 
   64200    274.07967   -488.25952    126070.85   -43550.795    3345.5308   -46896.326   0.29847135 
   64300    274.99685   -518.20552    126071.32   -43563.122    3356.7262   -46919.848   0.30968223 
   64400    271.50783   -528.69407    126045.65   -43630.071    3314.1378   -46944.209   0.31371653 
   64500    273.16571    -525.1757    126031.84   -43612.224    3334.3747   -46946.599   0.30808991 
   64600    272.54279   -505.01966    126029.74   -43667.858     3326.771   -46994.629   0.30312183 
   64700    268.80252   -512.20667     126014.4   -43693.361    3281.1157   -46974.477   0.30841054 
   64800    272.92872   -495.04993    126025.71   -43634.451    3331.4818   -46965.932   0.30752995 
   64900     268.9449    -484.6091    126056.49   -43572.445    3282.8536   -46855.298   0.30369722 
   65000    280.35882   -461.37906    126092.08   -43551.579    3422.1767   -46973.756   0.30814242 
   65100    274.22732   -524.00135    126050.45   -43592.952    3347.3331   -46940.285   0.30825858 
   65200    271.04546   -518.74465    126039.87   -43615.587    3308.4939   -46924.081   0.30504115 
   65300    274.65499   -528.11361    126043.45   -43533.513    3352.5534   -46886.066   0.32223715 
   65400    279.16375   -481.04269     126050.5   -43586.539    3407.5892   -46994.128   0.30241718 
   65500    273.19467   -485.64851    126047.04   -43520.065    3334.7281   -46854.793   0.30831539 
   65600    274.77185   -536.91198     126036.9   -43514.513    3353.9798   -46868.493   0.32086724 
   65700    277.43676   -498.91816    126057.22   -43513.398    3386.5089   -46899.907    0.3091788 
   65800    271.90194   -487.38006    126071.01   -43555.899    3318.9484   -46874.848   0.30599488 
   65900    276.63322   -507.38071    126047.53   -43569.326    3376.7005   -46946.027   0.31333116 
   66000    276.11742   -495.07809    126045.98   -43564.074    3370.4044   -46934.479   0.30624778 
   66100    280.11306   -482.59426    126067.99   -43598.439    3419.1769   -47017.616    0.2934732 
   66200    268.82607   -496.19123     126029.3   -43655.816    3281.4032   -46937.219   0.32002952 
   66300    268.77298   -515.31091    126016.24   -43651.864    3280.7551   -46932.619   0.30276325 
   66400    275.43616   -468.04557    126028.39   -43635.546    3362.0887   -46997.634   0.30708371 
   66500    273.45749   -540.09289    126053.08   -43612.784    3337.9363   -46950.721   0.31781136 
   66600    271.44978   -516.63708     126050.9   -43651.496    3313.4293   -46964.925   0.30764839 
   66700    265.28983   -481.56824     126049.5   -43639.452    3238.2383    -46877.69   0.31058249 
   66800    270.45618   -496.55151    126046.53   -43682.856    3301.3009   -46984.157   0.31019214 
   66900    270.21461   -485.18537    126016.11   -43659.865    3298.3522   -46958.217   0.30474482 
   67000    265.20669   -507.33149    125999.87   -43771.806    3237.2235    -47009.03   0.29716823 
   67100    276.73372   -473.72541    126026.36   -43609.702    3377.9272    -46987.63   0.31222411 
   67200    271.32365   -514.40901    126031.39   -43661.248    3311.8897   -46973.137   0.30343355 
   67300    273.69204   -499.52864    126074.28   -43659.121    3340.7992    -46999.92   0.29814013 
   67400     273.1091   -511.61803    126068.41   -43622.202    3333.6836   -46955.886   0.31871739 
   67500    274.86755   -504.02782    126079.03   -43607.818    3355.1479   -46962.966   0.30132147 
   67600    280.52819   -474.18352    126123.69   -43497.367    3424.2441   -46921.611    0.3027669 
   67700     276.2725   -482.04448    126106.73   -43542.585    3372.2973   -46914.883   0.31396567 
   67800    277.03058   -494.13221    126117.29   -43584.451    3381.5508   -46966.002    0.2975566 
   67900     273.4426   -479.06795    126091.47   -43597.213    3337.7544   -46934.967   0.30415524 
   68000     271.8569    -472.0481    126054.04   -43643.364    3318.3987   -46961.763   0.31124177 
   68100    274.25327   -471.18737    126060.84   -43651.991    3347.6498   -46999.641    0.2956113 
   68200    272.32542   -512.08865    126047.99   -43660.305    3324.1177   -46984.423   0.31002892 
   68300     274.8271    -500.9786    126060.87   -43581.874    3354.6542   -46936.529   0.31215291 
   68400      274.587   -540.90919    126090.75   -43516.193    3351.7235   -46867.917   0.30614843 
   68500    273.58664   -494.29885    126091.68   -43548.162    3339.5126   -46887.675   0.30609393 
   68600    279.35956   -497.20791    126084.77   -43569.168    3409.9793   -46979.148   0.30839255 
   68700     273.4137   -480.47827     126051.1   -43610.365    3337.4016   -46947.767    0.3040766 
   68800    275.09614    -540.6435    126069.12   -43600.484    3357.9383   -46958.423   0.30503355 
   68900    270.02541   -507.34308    126042.61   -43593.856    3296.0428   -46889.899   0.32417882 
   69000    270.29506   -534.29365    126057.46   -43585.574    3299.3343   -46884.908   0.30109748 
   69100    274.43286   -522.57764     126022.4    -43694.47     3349.842   -47044.312   0.30379638 
   69200    272.17039   -492.43554    126009.85   -43662.756    3322.2253   -46984.981    0.3195333 
   69300    272.93486   -496.99275    125966.29   -43677.906    3331.5568   -47009.463   0.30113426 
   69400    268.72307   -509.64595    125962.88   -43735.037    3280.1458   -47015.183   0.31392873 
   69500    271.21206   -494.88736     125966.4   -43674.396    3310.5275   -46984.924   0.32112651 
   69600    275.48192   -505.15444     126024.8   -43491.907    3362.6472   -46854.554   0.31231277 
   69700    272.80857   -541.45281    126030.87   -43566.192    3330.0152   -46896.207   0.31511047 
   69800    274.99321    -499.2247    126007.03   -43613.405    3356.6819   -46970.087   0.32197385 
   69900    268.80546   -535.51891    126004.78   -43681.209    3281.1516   -46962.361    0.3078175 
   70000    275.81189   -469.37198    125985.53   -43600.133     3366.675   -46966.808   0.30963068 
   70100    267.86692   -521.53694    125982.97   -43697.585    3269.6954    -46967.28   0.32050998 
   70200     277.1143   -488.73652    125998.49   -43587.176    3382.5728   -46969.749   0.30853974 
   70300    275.76776   -494.42746    126011.34   -43631.464    3366.1363     -46997.6   0.31547986 
   70400    276.92954   -503.93346    126044.95   -43514.542    3380.3174   -46894.859   0.31517395 
   70500    272.54436    -525.3681     126045.3   -43607.189    3326.7901   -46933.979   0.30668717 
   70600    270.82199   -509.07126    126029.79   -43607.308    3305.7661   -46913.074   0.31629558 
   70700    272.62073   -511.54527    126003.21   -43614.611    3327.7223   -46942.333   0.31736103 
   70800    270.58543   -509.64069    125989.39   -43633.382    3302.8786    -46936.26   0.31088055 
   70900    270.86568   -519.81464    125998.48   -43666.049    3306.2995   -46972.349   0.31315251 
   71000    272.79916   -487.27127    126014.29   -43630.108    3329.9003   -46960.009   0.31983089 
   71100    269.55362   -512.56021    126011.07   -43688.843     3290.284   -46979.127   0.30413078 
   71200    275.84308   -499.59483    126032.82   -43623.712    3367.0557   -46990.768   0.31095336 
   71300    274.34514   -510.63347    126004.93    -43718.37    3348.7712   -47067.141   0.31197259 
   71400    267.73357   -487.65985    125995.49   -43659.867    3268.0677   -46927.935   0.31245343 
   71500     275.8606   -474.29729    126008.22   -43618.165    3367.2696   -46985.435   0.31381585 
   71600    272.51962   -506.09115    126026.25   -43607.256    3326.4882   -46933.744   0.31698441 
   71700    272.75359   -510.56318    126028.35   -43641.741    3329.3441   -46971.085     0.305454 
   71800    265.79648   -495.32999    125977.95   -43719.567    3244.4227   -46963.989   0.31593233 
   71900    269.61432   -523.32724    125939.22    -43731.64    3291.0249   -47022.665   0.31701555 
   72000    266.91722   -500.81079    125961.81   -43716.106    3258.1029   -46974.209    0.3116282 
   72100    272.69609    -507.2992    125983.16   -43593.664    3328.6423   -46922.306   0.31996736 
   72200    280.91426   -468.53525    126035.34   -43472.411    3428.9567   -46901.367   0.31278896 
   72300    282.43244   -479.10167    126090.11   -43413.327    3447.4882   -46860.816   0.31023202 
   72400    275.90522   -520.65376    126066.65   -43555.371    3367.8142   -46923.185   0.31315021 
   72500    273.07792   -478.46311    126060.62   -43561.589     3333.303   -46894.892   0.31643423 
   72600    280.79093   -509.03699    126085.78   -43498.266    3427.4512   -46925.718   0.31021362 
   72700     275.0695   -513.06592    126070.28    -43607.28     3357.613   -46964.893   0.31188969 
   72800    276.77648   -503.16202    126053.78   -43588.384    3378.4492   -46966.834   0.31047091 
   72900    275.12325   -524.60085     126045.5    -43576.24    3358.2691   -46934.509   0.30843676 
   73000    272.58699   -515.99279     126034.8   -43620.085    3327.3105   -46947.396   0.31874443 
   73100    274.19598   -495.49608    126014.09   -43592.217    3346.9505   -46939.168   0.31097884 
   73200    275.99153   -497.77905    126059.41   -43514.665    3368.8678   -46883.533   0.31050419 
   73300    278.74005   -480.19092    126080.25   -43467.692    3402.4173   -46870.109   0.32149752 
   73400    275.55048   -513.72228    126089.09   -43480.464    3363.4842   -46843.948   0.31097504 
   73500    283.93631   -488.11495    126085.97   -43462.012     3465.845   -46927.857   0.31333414 
   73600    280.16064   -524.82329    126060.27   -43492.773    3419.7577   -46912.531   0.31633044 
   73700    272.71111    -479.1551    126061.28   -43600.262    3328.8255   -46929.087   0.31116671 
   73800    268.91223    -507.5295    126059.66   -43679.587    3282.4548   -46962.042   0.30480369 
   73900    269.87824   -539.84585    126062.67   -43649.589    3294.2464   -46943.836   0.31469566 
   74000    268.86822   -489.22315    126033.81   -43628.002    3281.9177   -46909.919    0.3083926 
   74100    276.01276   -499.55482     126090.4   -43479.044    3369.1269   -46848.171   0.30949566 
   74200    271.58298   -514.62165    126087.38   -43569.549    3315.0551   -46884.604   0.31979766 
   74300    269.09738   -496.35906    126060.59   -43631.088    3284.7148   -46915.802   0.31012027 
   74400    275.79234   -522.10304    126057.95   -43606.889    3366.4364   -46973.325   0.30917562 
   74500    270.15258   -522.06514    126023.15   -43662.162    3297.5951   -46959.757   0.31617691 
   74600    274.09087   -491.62504    126043.37   -43618.606    3345.6675   -46964.273    0.3088013 
   74700    270.41681   -525.91619    126050.21   -43564.272    3300.8204   -46865.092   0.31290121 
   74800    275.23442   -487.94644    126035.76   -43625.956    3359.6262   -46985.583   0.31199267 
   74900    277.70626   -461.19514     126049.6   -43585.927    3389.7984   -46975.726   0.30249724 
   75000    269.22865   -490.64025    126031.91   -43634.586    3286.3172   -46920.903   0.30810955 
   75100    276.15742   -447.58304    126052.14   -43543.948    3370.8927    -46914.84   0.31532183 
   75200    274.01381   -481.73962    126065.88   -43550.716    3344.7269   -46895.443   0.30754235 
   75300    270.97114   -472.94973    126047.33   -43618.434    3307.5868   -46926.021   0.30015135 
   75400    273.83142   -482.39346    126040.05    -43645.56    3342.5005   -46988.061   0.31321567 
   75500    275.75888    -494.7301     126041.6   -43663.922    3366.0279    -47029.95   0.30135935 
   75600     274.1672   -491.39274    126065.36   -43588.331    3346.5992    -46934.93   0.30509487 
   75700    274.15485   -465.46531    126095.08   -43516.085    3346.4484   -46862.533   0.31841741 
   75800    279.64796   -449.05891    126103.06   -43511.545    3413.4996   -46925.045    0.2960595 
   75900     275.6416   -508.66935    126063.37   -43561.041    3364.5963   -46925.637   0.30986403 
   76000    272.84969   -537.44988    126041.66   -43546.267    3330.5172   -46876.784   0.32367629 
   76100    273.16764   -529.64476    126036.74   -43632.969    3334.3981   -46967.367   0.30205631 
   76200    270.45757   -522.38173     126041.7   -43687.533     3301.318   -46988.851   0.30710039 
   76300    272.93494   -524.64925     126036.5       -43639    3331.5577   -46970.558   0.31663514 
   76400     272.8359   -510.81332    126060.46   -43662.565    3330.3488   -46992.914   0.30313579 
   76500    272.64799   -498.28784    126070.71   -43616.566    3328.0551   -46944.621   0.30415311 
   76600    275.42478   -503.03614    126064.81   -43604.452    3361.9498   -46966.402   0.31640305 
   76700    276.50382   -505.13868    126071.46   -43570.969     3375.121    -46946.09   0.30339075 
[...]
   81900    270.24162   -535.77466    126007.57   -43668.699     3298.682   -46967.381   0.30523089 
   82000    273.73984   -475.89918    126024.51   -43601.871    3341.3827   -46943.253   0.31554401 
   82100    273.44491   -472.24705    126068.91   -43555.274    3337.7827   -46893.057    0.3003288 
   82200    278.62292   -464.67078    126046.39   -43512.869    3400.9876   -46913.856   0.30623323 
   82300     274.1244   -519.84027     126031.5   -43609.287    3346.0767   -46955.363   0.32090073 
   82400    276.98842   -529.20443    126020.57   -43536.845    3381.0362   -46917.881   0.30450357 
   82500    279.05733   -465.23754    126084.02   -43426.871    3406.2902   -46833.161   0.30489747 
   82600    281.71452     -509.828    126081.61   -43472.415    3438.7249   -46911.139   0.31486272 
   82700    274.69903   -496.09694    126022.03    -43585.83    3353.0909   -46938.921   0.30287295 
   82800    268.51859   -522.66385    125999.64   -43580.602    3277.6499   -46858.252   0.31827296 
   82900    274.84766   -528.15485    126008.17   -43554.958    3354.9052   -46909.863   0.31636043 
   83000    276.68717   -506.44547    126007.71   -43514.983     3377.359   -46892.342   0.30858955 
   83100    276.70081   -529.88738    126055.67   -43500.783    3377.5255   -46878.308    0.3176283 
   83200    272.26337   -508.83089    126026.12   -43551.879    3323.3603   -46875.239   0.31443955 
   83300    273.96269   -501.11683    126038.75   -43577.464    3344.1029   -46921.567   0.29945974 
   83400    271.86136   -502.09731    126011.37   -43582.385    3318.4531   -46900.838   0.30478355 
   83500    267.28149   -540.18912    125976.96   -43702.491    3262.5493   -46965.041   0.31503253 
   83600    268.25249   -523.14887    125989.27   -43678.364    3274.4018   -46952.766   0.30295527 
   83700    270.19472   -538.83047    126008.62   -43680.621    3298.1095    -46978.73   0.30842644 
   83800    271.27315   -493.86832    126002.66   -43664.383    3311.2732   -46975.656   0.31462216 
   83900    274.51116   -478.51963    126037.06   -43637.911    3350.7977   -46988.709   0.29413147 
   84000    274.03136   -463.33327    126032.44   -43644.935    3344.9411   -46989.876   0.30804514 
   84100    274.22608   -451.17767    126035.33     -43611.1    3347.3179   -46958.418   0.30644901 
   84200    276.33276   -485.93979    126037.89   -43589.548    3373.0329   -46962.581   0.30083626 
   84300    270.90456   -544.72031    126044.82   -43645.764    3306.7741   -46952.538   0.30928425 
   84400    270.65754   -544.03241     126049.6   -43639.256    3303.7589   -46943.014   0.30753118 
   84500    271.41346   -532.12897    126040.36   -43650.685     3312.986   -46963.671   0.30387821 
   84600    274.21941   -513.81658    126079.07   -43588.329    3347.2365   -46935.566    0.3043126 
   84700    272.53088   -506.85659    126073.56   -43609.613    3326.6256   -46936.239   0.31160702 
   84800     273.3506   -511.70041    126062.45   -43597.728    3336.6315   -46934.359   0.30094681 
   84900    273.77913   -479.79456     126068.5   -43529.465    3341.8623   -46871.327   0.30691298 
   85000    279.47335   -459.64519    126061.15   -43595.431    3411.3683   -47006.799   0.30320982 
   85100    272.75085   -526.97911    126036.32   -43625.178    3329.3106   -46954.488   0.29926018 
   85200     274.9152   -490.87734    126046.39   -43603.882    3355.7296   -46959.612   0.30717276 
   85300    275.80118   -530.05243    126050.78   -43607.045    3366.5443   -46973.589    0.3119132 
   85400    271.48789   -519.42727    126020.73   -43660.909    3313.8944   -46974.803   0.30232759 
   85500    270.21956    -483.7336    126027.24   -43616.737    3298.4127    -46915.15    0.3121317 
   85600    268.52754   -486.65541    126028.71   -43644.124    3277.7591   -46921.883   0.31395154 
   85700    271.49795   -465.14385    126035.77   -43641.014    3314.0172   -46955.031   0.29923394 
   85800    273.48521   -490.35174    126063.07   -43606.241    3338.2746   -46944.515   0.30816233 
   85900    276.07421   -474.95222    126083.52   -43560.524     3369.877   -46930.401    0.3033747 
   86000    270.86851   -514.66099    126045.79   -43616.661     3306.334   -46922.995   0.30551455 
   86100     270.0078   -506.31127    126042.78   -43580.774    3295.8278   -46876.602   0.31416907 
   86200    272.54996   -508.25159    126059.24   -43593.831    3326.8586    -46920.69    0.3102006 
   86300    269.30006   -510.02856    126052.24   -43612.233    3287.1889   -46899.422   0.30884792 
   86400    270.03699   -497.65499    126051.16   -43648.785    3296.1841   -46944.969   0.30534484 
   86500    268.51217   -538.61224    126044.33   -43696.326    3277.5715   -46973.898   0.31362124 
   86600    277.54738   -452.48664    126089.73   -43580.112    3387.8591   -46967.971   0.29403403 
   86700    274.89569   -522.55601    126084.96   -43587.031    3355.4914   -46942.522   0.31097989 
   86800    274.27016   -474.18068    126030.62   -43644.694     3347.856    -46992.55   0.30725279 
   86900    269.26212   -500.24503    126045.96   -43600.083    3286.7257   -46886.809   0.30243623 
   87000    272.08323   -472.46042    126066.69   -43572.971    3321.1614   -46894.132    0.3157583 
   87100    274.65242   -491.77391    126045.86   -43602.131     3352.522   -46954.653    0.3054278 
   87200    270.17868    -483.7946    126044.68    -43567.18    3297.9137   -46865.094   0.30637654 
   87300    278.08738   -488.82884    126041.61   -43544.882    3394.4506   -46939.332   0.30790003 
   87400    274.28025   -496.79227    126009.03   -43592.553    3347.9792   -46940.533   0.31050343 
   87500     269.6056   -498.69285     126034.7   -43551.849    3290.9185   -46842.767   0.30576905 
   87600    277.91888   -505.60388    126050.45   -43578.282    3392.3937   -46970.675    0.3023678 
   87700    275.75499    -525.3696    126039.36   -43567.628    3365.9804   -46933.609   0.31200791 
   87800    274.63426    -514.5603    126016.89   -43602.446    3352.3003   -46954.746   0.30495766 
   87900     273.5393   -491.58557     125988.9   -43654.727    3338.9348   -46993.662   0.30504782 
   88000    272.53927   -488.62493     126012.5   -43618.437     3326.728   -46945.165   0.30626238 
   88100    274.19637   -507.66721    126020.61   -43588.908    3346.9552   -46935.863   0.30182719 
   88200    272.32919   -524.44604    126025.51   -43673.178    3324.1637   -46997.342   0.30018926 
   88300    272.07553   -495.53268    126010.28   -43640.502    3321.0675   -46961.569   0.31112761 
   88400    270.87312   -481.38746    126062.94   -43589.094    3306.3903   -46895.484   0.29731803 
   88500    271.24929   -497.84794    126082.04   -43637.586     3310.982   -46948.568   0.30047477 
   88600    274.17648   -462.53522    126082.41   -43618.304    3346.7125   -46965.016   0.30029744 
   88700    273.57105   -444.66667    126094.16   -43597.061    3339.3224   -46936.383   0.28588143 
   88800    273.81219   -476.17334    126115.89   -43634.662    3342.2659   -46976.928   0.29665543 
   88900    273.17316   -532.13558     126092.8    -43639.61    3334.4655   -46974.076   0.30182218 
   89000    271.04884   -503.39509     126107.1    -43592.03    3308.5352   -46900.565   0.29594813 
   89100    272.63752   -475.37635    126081.13   -43628.218    3327.9273   -46956.146   0.29767283 
   89200    274.56051   -488.78902    126121.41    -43582.59    3351.4001    -46933.99   0.30247771 
   89300    273.59659   -494.58248     126098.3   -43690.514    3339.6341   -47030.148   0.28931892 
   89400    270.80144    -461.7017    126136.82   -43590.114    3305.5154   -46895.629   0.29443562 
   89500    278.16174   -489.01463    126136.98   -43663.408    3395.3582   -47058.766    0.2940409 
   89600    269.77139   -494.06809    126087.21    -43747.97    3292.9421   -47040.912    0.2890305 
   89700    274.06448   -497.50884    126086.86   -43653.437    3345.3453   -46998.782   0.30021584 
   89800    271.06576   -541.94972    126113.31   -43602.262    3308.7417   -46911.003   0.30855468 
   89900    273.11986   -499.58198    126125.31    -43584.16     3333.815   -46917.975   0.29228589 
   90000     271.8286   -531.31099    126108.72   -43623.302    3318.0532   -46941.356   0.30040142 
   90100    277.01834   -513.71268     126088.3   -43568.416    3381.4014   -46949.818   0.30751714 
   90200    273.60527   -512.35808     126075.1   -43625.559    3339.7401   -46965.299    0.2888356 
   90300     276.7783   -484.91815     126064.6   -43643.046    3378.4713   -47021.517   0.30027981 
   90400    277.18107   -494.45066    126075.34   -43613.744    3383.3878   -46997.132   0.30159343 
   90500    272.57877   -472.34015    126070.96   -43614.938    3327.2101   -46942.148   0.29035186 
   90600     279.2354   -495.58405    126074.85   -43582.242    3408.4637   -46990.706   0.30634391 
   90700    272.01517   -498.05134    126078.77   -43627.213    3320.3307   -46947.544   0.30428271 
   90800    271.13949   -488.35422    126066.93   -43665.113    3309.6417   -46974.755   0.29536837 
   90900    277.98194   -482.57729    126076.98   -43598.572    3393.1635   -46991.735   0.29909802 
   91000    264.14932   -511.45393     126069.3   -43684.169    3224.3168   -46908.485   0.30573002 
   91100    271.38197   -524.77234    126051.21   -43745.011    3312.6016   -47057.613   0.29545383 
   91200    271.83672   -516.35801    126025.14    -43737.89    3318.1524   -47056.042   0.29726823 
   91300    274.19098   -469.91977    126036.14   -43683.766    3346.8895   -47030.656   0.30031402 
   91400     269.6531   -478.62147    126043.87   -43627.202    3291.4983     -46918.7   0.29716236 
   91500    277.33223   -472.71888    126088.86   -43486.769    3385.2329   -46872.002   0.30910536 
   91600    276.64909   -507.10562    126100.36   -43520.139    3376.8942   -46897.033   0.31111757 
   91700    275.03576   -454.37849    126092.18   -43614.704    3357.2012   -46971.906   0.28740927 
   91800    276.55287   -474.11166    126094.36   -43514.191    3375.7197   -46889.911   0.30870199 
   91900    274.98756   -469.08616    126104.15   -43565.868    3356.6129   -46922.481   0.30397758 
   92000    274.94196   -482.86401    126106.41   -43578.667    3356.0563   -46934.723   0.29320062 
   92100    274.03165   -518.14821    126063.04   -43618.478    3344.9446   -46963.422   0.31140092 
   92200    270.60528   -520.34873    126069.39   -43647.441    3303.1209   -46950.562   0.30592431 
   92300    281.06303   -468.16908     126087.7   -43528.835    3430.7725   -46959.608    0.2900699 
   92400    274.32561    -507.0041     126092.5   -43580.042    3348.5328   -46928.575   0.30754396 
   92500    271.45468   -491.19629    126096.81   -43559.972    3313.4891   -46873.461   0.30723797 
   92600    276.52821   -490.37872    126101.95   -43501.599    3375.4187   -46877.017   0.30057617 
   92700     272.4238   -512.34797    126075.06   -43582.726    3325.3185   -46908.044   0.30631004 
   92800    273.94021    -477.0925    126049.79    -43575.58    3343.8284   -46919.409   0.30500954 
   92900    273.07701   -498.99184    126025.27   -43603.386    3333.2919   -46936.678   0.30043209 
   93000    272.01615   -462.57729    126003.92   -43617.365    3320.3426   -46937.707   0.31485355 
   93100    275.24973    -521.8434     125991.2   -43606.418    3359.8131   -46966.231   0.32009976 
   93200    270.99789   -497.45747    126030.13   -43594.779    3307.9133   -46902.692   0.30048942 
   93300    268.08673   -524.66366    126010.59   -43650.481    3272.3785    -46922.86   0.31690599 
   93400     267.6398   -510.73691    126001.08   -43699.673    3266.9231   -46966.596   0.31025129 
   93500    272.06709   -476.06285    126018.97   -43660.985    3320.9644   -46981.949   0.29750278 
   93600    271.14666   -493.33101    126010.73    -43632.46    3309.7293   -46942.189   0.31609248 
   93700    266.84705   -503.11928    126018.66   -43618.288    3257.2464   -46875.535   0.30765983 
   93800    268.17988   -524.96988    125998.49   -43661.209    3273.5154   -46934.724   0.30817776 
   93900    271.33388   -524.83132    126034.18   -43697.079    3312.0146   -47009.094   0.30989858 
   94000    268.18669    -517.0721    126024.67   -43706.817    3273.5986   -46980.416   0.30295718 
   94100    273.20578   -539.01434    126052.47   -43605.679    3334.8637   -46940.543   0.30031429 
   94200    273.68229   -495.33765    126047.77   -43556.747    3340.6802   -46897.427   0.31774244 
   94300    271.99995   -494.89187     126058.7   -43583.384    3320.1449   -46903.528   0.31035998 
   94400    272.09517   -481.15904    126064.98   -43611.465    3321.3071   -46932.772   0.30198287 
   94500    279.86977   -514.60252       126064   -43528.156    3416.2072   -46944.363   0.31717736 
   94600    270.47293   -533.13765    126046.96   -43634.378    3301.5055   -46935.884    0.3058957 
   94700     265.6476   -518.92749    126063.29   -43636.612    3242.6055   -46879.217   0.30413857 
   94800    272.11813   -509.16909    126093.59   -43633.906    3321.5874   -46955.493   0.30926659 
   94900    272.63813   -494.78759    126078.63   -43685.539    3327.9348   -47013.473   0.29727246 
   95000    272.98878   -485.77975    126035.11   -43645.736    3332.2149   -46977.951   0.29677006 
   95100    272.21671   -500.77404    126070.77   -43638.062    3322.7907   -46960.853   0.30593658 
   95200    275.58406   -470.66098    126067.39   -43612.787     3363.894   -46976.681    0.2976103 
   95300    270.66879   -525.58075    126068.47    -43629.05    3303.8962   -46932.946   0.29721742 
   95400    275.58667   -493.19017    126086.72   -43596.449    3363.9258   -46960.375   0.30774798 
   95500    274.11789   -455.30211    126097.13   -43556.965    3345.9973   -46902.962   0.29987362 
   95600    272.53788   -497.25894    126119.56   -43608.076     3326.711   -46934.787   0.29388722 
   95700    275.39971   -497.24967    126114.74   -43584.749    3361.6438   -46946.393   0.30657783 
   95800    272.85329   -533.00406    126116.56   -43594.854     3330.561   -46925.416   0.29553355 
   95900    270.83817   -557.66171    126110.26   -43609.901    3305.9637   -46915.865   0.29577308 
   96000    271.33101   -549.41973    126105.35   -43571.693    3311.9795   -46883.673   0.31296796 
   96100    280.70547   -478.55239    126131.91   -43496.097    3426.4081   -46922.505   0.29521859 
   96200    272.18513   -505.97635    126145.17   -43529.054    3322.4052   -46851.459   0.30380839 
   96300    270.97885   -529.42185     126114.3   -43557.516    3307.6809   -46865.197   0.31238704 
   96400    269.93454   -487.55484    126111.24    -43596.92    3294.9336   -46891.854   0.29118258 
   96500    273.75072   -485.28872    126086.77   -43574.543    3341.5154   -46916.059   0.29609472 
   96600     277.7953   -505.48977    126082.25   -43619.333    3390.8853   -47010.218   0.30420041 
   96700    276.95227   -515.02135    126075.69    -43598.31    3380.5949   -46978.905   0.29726054 
   96800    277.00967   -511.19523    126069.69   -43618.631    3381.2956   -46999.927   0.29578948 
   96900    272.44538   -484.78485    126053.87   -43654.948     3325.582    -46980.53   0.30813733 
   97000    266.63734   -518.36785    126058.68   -43662.075    3254.6866   -46916.762   0.29929597 
   97100    272.31047   -511.86179    126051.33   -43658.192    3323.9352   -46982.127   0.30192065 
   97200    268.57035   -514.26933    126058.34   -43649.187    3278.2817   -46927.468   0.31417251 
   97300    278.47797    -502.3829    126077.32   -43522.404    3399.2183   -46921.622   0.29607001 
   97400    274.47276   -473.67867    126052.38   -43564.064    3350.3291   -46914.393    0.3051978 
   97500     274.0731    -513.7164     126043.8   -43538.793    3345.4506   -46884.244   0.31390706 
   97600    277.69989   -457.67074    126072.17   -43522.279    3389.7207       -46912   0.29616134 
   97700    276.20521   -494.61211    126089.61   -43504.878     3371.476   -46876.354   0.30363717 
   97800     276.6202    -515.7637    126063.45   -43550.692    3376.5416   -46927.234   0.31036697 
   97900    277.33661   -487.00622    126060.66   -43546.252    3385.2863   -46931.538   0.30318936 
   98000     275.5935   -464.99871    126052.92   -43590.444    3364.0092   -46954.453   0.30663125 
   98100    270.14014   -476.27649    126071.85   -43587.445    3297.4433   -46884.888   0.31322101 
   98200    273.74323   -505.87774    126060.22   -43615.119     3341.424   -46956.544   0.29806938 
   98300    270.57407   -467.05047    126062.39   -43526.703    3302.7399   -46829.443   0.30757753 
   98400    279.60907   -467.15138    126051.57   -43562.512    3413.0249   -46975.537   0.31161488 
   98500    277.67911   -477.67298    126047.06   -43576.086     3389.467   -46965.553    0.2961564 
   98600    272.28154    -558.7881    126040.39   -43580.947     3323.582   -46904.529   0.31123885 
   98700    276.79303   -460.53755    126061.75   -43539.887    3378.6512   -46918.539   0.32050691 
   98800    274.49897   -481.61042    126078.35   -43520.551    3350.6489     -46871.2   0.30110084 
   98900    272.28597   -502.04784    126046.16   -43601.704    3323.6362    -46925.34   0.31001878 
   99000    271.30139   -498.63109    126034.62   -43591.051     3311.618   -46902.669   0.31992813 
   99100    272.28232    -493.1671    126028.73   -43651.375    3323.5916   -46974.966   0.29638926 
   99200    275.84293   -519.39527    126038.09   -43628.774    3367.0539   -46995.828    0.3066956 
   99300    274.65763   -468.07311    126048.46   -43602.515    3352.5856   -46955.101   0.31629539 
   99400    269.71607   -503.31518    126052.13    -43640.09    3292.2668   -46932.357   0.30094526 
   99500    275.35702   -500.22936    126043.78   -43595.352    3361.1226   -46956.475   0.30042065 
   99600     271.0914   -515.77425    126044.34   -43575.583    3309.0547   -46884.638   0.31825286 
   99700    277.03697   -469.12161    126033.36   -43626.035    3381.6289   -47007.664   0.29168213 
   99800    274.30122   -496.81935     126023.4   -43606.302    3348.2351   -46954.537   0.30233548 
   99900    276.20494    -528.4757    126000.58   -43649.555    3371.4727   -47021.027    0.3196551 
  100000    278.17077   -500.46424    126027.81   -43611.237    3395.4684   -47006.706   0.29484662 
Loop time of 124.489 on 6 procs for 100000 steps with 4096 atoms

Performance: 347.019 ns/day, 0.069 hours/ns, 803.285 timesteps/s
98.9% CPU use with 6 MPI tasks x no OpenMP threads

MPI task timing breakdown:
Section |  min time  |  avg time  |  max time  |%varavg| %total
---------------------------------------------------------------
Pair    | 89.899     | 91.644     | 94.396     |  17.7 | 73.62
Neigh   | 5.8591     | 6.047      | 6.3519     |   8.4 |  4.86
Comm    | 20.411     | 23.44      | 25.345     |  39.3 | 18.83
Output  | 0.18647    | 0.18809    | 0.19525    |   0.7 |  0.15
Modify  | 2.2649     | 2.3074     | 2.3399     |   1.8 |  1.85
Other   |            | 0.8622     |            |       |  0.69

Nlocal:        682.667 ave         703 max         661 min
Histogram: 1 1 0 0 1 1 0 0 0 2
Nghost:        1589.67 ave        1596 max        1571 min
Histogram: 1 0 0 0 0 0 0 0 4 1
Neighs:        0.00000 ave           0 max           0 min
Histogram: 6 0 0 0 0 0 0 0 0 0
FullNghs:      21506.0 ave       22146 max       20810 min
Histogram: 1 1 0 0 0 2 0 0 0 2

Total # of neighbors = 129036
Ave neighs/atom = 31.502930
Neighbor list builds = 6530
Dangerous builds = 0

undump              1
unfix               2
unfix               3
unfix               4




################################################
#######         Run Simulation         #########
################################################

reset_timestep      0
log                 log.run_${NAME}
log                 log.run_ice_274K_500atm_mW
