
# Set production fixes - Nose/Hoover
#
fix                 2 all nph iso ${PRES} ${PRES} ${PCOUPL}
fix                 2 all nph iso -500 ${PRES} ${PCOUPL}
fix                 2 all nph iso -500 -500 ${PCOUPL}
fix                 2 all nph iso -500 -500 10000.0
fix                 3 all temp/csvr ${TEMP} ${TEMP} ${TCOUPL} 837492
fix                 3 all temp/csvr 274 ${TEMP} ${TCOUPL} 837492
fix                 3 all temp/csvr 274 274 ${TCOUPL} 837492
fix                 3 all temp/csvr 274 274 5000.0 837492

# Define Order parameter
#
compute             2 all orientorder/atom nnn NULL cutoff 3.5
thermo              200
thermo_style        custom step temp press vol etotal ke pe c_1[4]

# Run 1ns simulation
dump		    1 all custom 400 prod.${NAME}.dump id type x y z vx vy vz c_2[*]
dump		    1 all custom 400 prod.ice_274K_500atm_mW.dump id type x y z vx vy vz c_2[*]
run                 200000
Neighbor list info ...
  update every 1 steps, delay 0 steps, check yes
  max neighbors/atom: 2000, page size: 100000
  master list distance cutoff = 6.3065
  ghost atom cutoff = 6.3065
  binsize = 3.15325, bins = 16 16 16
  2 neighbor lists, perpetual/occasional/extra = 1 1 0
  (1) pair sw, perpetual
      attributes: full, newton on
      pair build: full/bin/atomonly
      stencil: full/bin/3d
      bin: standard
  (2) compute orientorder/atom, occasional, copy from (1)
      attributes: full, newton on
      pair build: copy
      stencil: none
      bin: none
Per MPI rank memory allocation (min/avg/max) = 5.837 | 5.837 | 5.837 Mbytes
Step Temp Press Volume TotEng KinEng PotEng c_1[4] 
       0    278.17077   -500.45517    126027.81   -43611.238    3395.4684   -47006.706   0.29484662 
     200    272.85701   -477.01246    126026.75   -43601.486    3330.6065   -46932.092   0.31305296 
     400    275.51657   -557.40508    126066.43   -43596.714    3363.0702   -46959.784   0.30743867 
     600     268.1707   -518.90897    126086.91   -43628.811    3273.4035   -46902.215   0.29679682 
     800    273.94754   -505.21935    126046.38   -43642.685    3343.9179   -46986.603   0.31431879 
    1000    271.99443   -503.40208    126025.35   -43654.315    3320.0775   -46974.392   0.30381202 
    1200     272.6214   -498.23607    126059.91   -43676.538    3327.7305   -47004.269   0.29098428 
    1400    273.63487   -535.46051    126088.89    -43668.45    3340.1014   -47008.551   0.30427469 
    1600    271.33788   -484.92458    126028.35   -43671.583    3312.0633   -46983.647   0.30054879 
    1800     269.5864   -463.21272    125965.26   -43677.336    3290.6841    -46968.02   0.30101066 
    2000     277.7286   -497.40452    126017.01    -43636.79    3390.0712   -47026.861   0.30904444 
    2200    272.77757   -521.41668    126132.08   -43607.506    3329.6368   -46937.143   0.29893118 
    2400    274.34698   -572.23622     126170.7    -43622.83    3348.7937   -46971.624   0.28473489 
    2600    268.10335   -493.47675    126066.26   -43662.682    3272.5813   -46935.264   0.30727388 
    2800    272.71178   -440.98377    125946.71   -43679.369    3328.8337   -47008.203   0.30726463 
    3000    271.11532   -484.33041    125995.16   -43689.713    3309.3467    -46999.06    0.2931959 
    3200    277.78654   -550.46082    126125.81   -43640.437    3390.7784   -47031.216   0.30040628 
    3400    270.16444   -554.60864    126137.89   -43673.848    3297.7399   -46971.588   0.28403834 
    3600    271.17466   -444.36015    125955.82    -43702.04    3310.0711   -47012.111   0.29042949 
    3800    270.46845   -403.53806    125847.51   -43636.589    3301.4507    -46938.04   0.32365244 
    4000     269.9288   -507.39035     126038.6   -43629.742    3294.8636   -46924.606   0.30523246 
    4200    277.14445   -620.63079    126260.64   -43642.217    3382.9408   -47025.158   0.27895794 
    4400    272.05829   -558.62299    126102.44   -43622.405     3320.857   -46943.262   0.30971343 
    4600    273.47704    -407.2702     125781.1   -43613.213    3338.1748   -46951.388   0.31165824 
    4800    273.59808   -383.09088    125840.47   -43607.233    3339.6523   -46946.886   0.30370895 
    5000    273.15221   -613.91498    126242.06   -43596.547    3334.2098   -46930.757   0.30013239 
    5200    273.51142   -719.53944    126358.01   -43594.038    3338.5945   -46932.632   0.28893128 
    5400    277.40982   -451.04878    126002.64   -43560.105    3386.1799   -46946.285   0.29278893 
    5600    275.59504   -311.79618    125778.08   -43547.587     3364.028   -46911.615    0.3308694 
    5800    277.24414   -476.33296    126060.29   -43535.338    3384.1576   -46919.496   0.31082562 
    6000    278.75084   -679.00519    126398.57   -43519.915     3402.549   -46922.464   0.28053508 
    6200    271.70054   -603.09451    126211.74   -43513.506    3316.4901   -46829.996   0.30796013 
    6400    280.41417   -238.67128    125773.52   -43487.643    3422.8523   -46910.496   0.31709034 
    6600     276.2248   -384.60186    125854.73   -43523.577    3371.7151   -46895.292   0.31250922 
    6800    276.39225   -671.37222     126321.6   -43552.417     3373.759   -46926.176   0.30637829 
    7000    278.52081   -712.40793    126432.94   -43561.069    3399.7411    -46960.81   0.28015616 
    7200     280.2448   -421.79546     126017.1   -43513.492    3420.7849   -46934.277   0.29842611 
    7400    277.47793   -294.58061    125751.45   -43499.104    3387.0113   -46886.115   0.33801305 
    7600    278.71677   -468.50216    126045.67   -43532.829    3402.1332   -46934.963    0.3109604 
    7800    273.93574   -688.07254    126427.78   -43553.216    3343.7739    -46896.99   0.28427461 
    8000    273.44057   -635.32719    126287.55   -43519.068    3337.7297   -46856.797   0.30510787 
    8200    278.34499   -332.91751    125805.44   -43555.907    3397.5951   -46953.502   0.31743609 
    8400    273.94248   -298.32735    125714.62   -43584.909    3343.8562   -46928.765   0.31795113 
    8600    276.85975   -512.49483    126191.51   -43540.338    3379.4656   -46919.804   0.31387684 
    8800     277.1939   -763.38693    126523.62   -43481.907    3383.5444   -46865.451   0.28221597 
    9000    282.37949   -514.67394    126213.36   -43464.606    3446.8418   -46911.448   0.28245987 
    9200    283.19158   -313.24022    125772.56   -43455.113    3456.7545   -46911.868    0.3296358 
    9400    275.21114   -386.09862    125933.39   -43498.829    3359.3419    -46858.17   0.31423516 
    9600    280.46592    -686.2733    126414.17   -43484.735     3423.484   -46908.219   0.28959655 
    9800    282.32924   -710.54638    126434.82   -43498.276    3446.2284   -46944.504   0.29502441 
   10000    283.38509   -388.82911    125914.96   -43497.513    3459.1166   -46956.629   0.30557953 
   10200    282.01009   -220.77121    125669.43   -43498.238    3442.3328   -46940.571   0.32558345 
   10400    282.24719   -495.19002     126115.4    -43483.96    3445.2269   -46929.187    0.3115067 
   10600    279.42515   -758.54477    126577.87   -43461.076    3410.7799   -46871.856   0.27477996 
   10800    281.67699   -630.16953    126317.05   -43490.902    3438.2668   -46929.169   0.28209522 
   11000     280.7856   -238.14176    125690.92   -43532.215    3427.3861   -46959.601   0.32972125 
   11200    277.56196   -264.03711    125695.51   -43547.433     3388.037    -46935.47    0.3233239 
   11400    277.77863   -648.99912    126321.44   -43566.695    3390.6819   -46957.377   0.29191316 
   11600    274.56144   -819.56793    126593.27   -43536.992    3351.4115   -46888.403    0.2933502 
   11800    274.96944   -496.09989     126075.1   -43605.948    3356.3916   -46962.339   0.29262872 
   12000    271.39278   -180.24363    125577.22   -43609.465    3312.7335   -46922.199   0.32916183 
   12200    272.01336   -415.54729    125850.49   -43589.229    3320.3086   -46909.537   0.32800302 
   12400    276.59394   -697.33713    126405.27   -43556.106     3376.221   -46932.327   0.28004904 
   12600    279.68476   -716.60721    126385.01   -43564.547    3413.9489   -46978.496   0.28301967 
   12800    274.72385   -371.87406    125838.23   -43577.202     3353.394   -46930.596   0.31969243 
   13000    277.96324   -238.82599     125683.6    -43561.61    3392.9352   -46954.545   0.31702856 
   13200    272.49146    -546.9265    126135.92    -43534.18    3326.1445   -46860.325   0.30786324 
   13400    272.47034   -699.31648    126433.25    -43547.99    3325.8867   -46873.877   0.29681865 
   13600    273.71556   -522.43945    126176.32   -43546.832    3341.0863   -46887.918   0.29960408 
   13800    278.82225   -332.80596    125855.13   -43544.421    3403.4207   -46947.841   0.31034308 
   14000    277.15015   -390.33287    125958.08   -43557.662    3383.0103   -46940.673   0.31323815 
   14200    272.82525   -639.26208    126243.76   -43573.169    3330.2188   -46903.388   0.29332889 
   14400     267.2771    -644.4195    126233.42   -43599.707    3262.4958   -46862.203   0.29800136 
   14600    275.82622   -473.05258    125973.89   -43596.712    3366.8499   -46963.562   0.30753833 
   14800    274.28788   -391.28882     125870.7   -43576.839    3348.0722   -46924.911   0.31559341 
   15000    269.13982   -511.48973    126068.96   -43623.282     3285.233   -46908.515   0.29994588 
   15200    269.49874   -660.44452    126221.97   -43674.066     3289.614    -46963.68   0.30050692 
   15400    272.96951   -504.85186    126079.88   -43680.701    3331.9797    -47012.68   0.29362171 
   15600    267.50071   -384.75994    125859.56   -43722.425    3265.2252   -46987.651    0.3050493 
   15800    270.47717   -435.96124    125908.35   -43671.627    3301.5572   -46973.184   0.31210385 
   16000    269.48685   -602.09252    126141.39   -43658.019    3289.4689   -46947.488   0.29842527 
   16200    271.81211   -558.62637    126165.31   -43611.634     3317.852   -46929.486    0.2992998 
   16400    272.78216   -482.14261    125994.21   -43611.313    3329.6929   -46941.006   0.30712292 
   16600     273.4181   -432.44627    125928.93   -43627.202    3337.4554   -46964.657   0.30993651 
   16800    273.37826   -515.48403    126054.13   -43586.911    3336.9691    -46923.88   0.30367163 
   17000    273.77826   -573.85323    126195.07   -43606.182    3341.8516   -46948.034   0.29876782 
   17200     274.6038   -529.80578    126136.26   -43590.856    3351.9285   -46942.785   0.30067862 
   17400     269.2722   -440.88329    125956.32   -43633.069    3286.8488   -46919.918   0.30181586 
   17600    274.17142   -411.10661    125877.67   -43667.577    3346.6507   -47014.228    0.3122798 
   17800    271.52646   -460.79891    126004.99   -43683.181    3314.3652   -46997.547   0.30636141 
   18000     269.6124   -588.99198    126118.84   -43709.357    3291.0014   -47000.359   0.29506947 
   18200    271.24813   -513.94913    125981.46   -43739.864    3310.9678   -47050.832   0.30902894 
   18400    268.24627    -373.9959    125782.97   -43755.198    3274.3259   -47029.524   0.32060004 
   18600    270.50235   -453.08837    125859.77   -43718.764    3301.8646   -47020.628   0.30664491 
   18800    275.70857   -589.23068    126138.05   -43663.333    3365.4138   -47028.747   0.29958639 
   19000     270.3659   -641.83268    126222.64   -43676.038    3300.1989   -46976.237   0.30034499 
   19200    272.99999   -434.61959    125924.75   -43660.157    3332.3518   -46992.509    0.3003623 
   19400    273.81044   -293.98401    125679.94   -43659.267    3342.2444   -47001.512   0.32405732 
   19600    270.74276    -462.7407    125944.21   -43677.821    3304.7991    -46982.62   0.31275121 
   19800    274.27576   -716.77085    126376.34   -43667.494    3347.9244   -47015.418     0.279714 
   20000    269.94048   -665.28896    126256.97   -43665.646    3295.0061   -46960.652   0.29165537 
   20200    270.44228    -285.1656    125677.48   -43694.152    3301.1312   -46995.284   0.32599305 
   20400    275.85418   -181.33753    125546.83   -43674.376    3367.1912   -47041.567   0.31319986 
   20600    273.63048   -554.98392    126218.44   -43673.637    3340.0477   -47013.685   0.28797178 
   20800    270.14909   -866.22583    126688.54   -43655.003    3297.5525   -46952.555   0.27257165 
   21000    272.00053   -534.56699    126144.09   -43662.426    3320.1519   -46982.578    0.2861089 
   21200    270.73743   -91.959415    125386.92   -43656.467     3304.734   -46961.201   0.33303421 
   21400    269.51876   -292.99666    125655.83   -43654.669    3289.8584   -46944.527   0.32612664 
   21600    274.61625   -793.08835     126539.7   -43606.406    3352.0805   -46958.486    0.2763727 
   21800    269.80014   -838.08183    126605.24   -43564.115    3293.2931   -46857.408   0.27826868 
   22000    275.86356   -327.11306    125830.89   -43578.279    3367.3057   -46945.585   0.31977517 
   22200    276.19593   -138.40734    125460.95   -43541.123    3371.3627   -46912.486   0.33257624 
   22400    276.37842   -486.55569    126067.64   -43519.756    3373.5902   -46893.346   0.30150541 
   22600    274.04187   -849.45711    126642.17   -43516.243    3345.0693   -46861.313   0.28566455 
   22800    270.70467   -635.67172    126291.95   -43561.187    3304.3342   -46865.521   0.28721127 
   23000    275.05419   -267.76913    125650.34   -43577.849    3357.4262   -46935.275    0.3242901 
   23200    277.09005    -283.8424    125703.54   -43564.966    3382.2768   -46947.243   0.33304659 
   23400    275.63991   -605.99008    126282.15   -43572.456    3364.5757   -46937.032   0.28233985 
   23600    273.54119   -802.27768    126481.14   -43579.634    3338.9579   -46918.591   0.27837709 
   23800    273.70818   -451.94711    126029.07   -43533.698    3340.9962   -46874.694   0.31766697 
   24000    276.28856   -237.22731    125693.82   -43563.833    3372.4934   -46936.326   0.30804974 
   24200    274.57388   -443.25871     125988.9   -43553.073    3351.5633   -46904.636   0.30003978 
   24400    275.50021   -732.11206    126405.93   -43553.164    3362.8705   -46916.035   0.29507553 
   24600    274.91493    -618.1776    126311.11   -43556.196    3355.7263   -46911.922   0.28399324 
   24800    280.09786   -340.60691    125914.24   -43489.507    3418.9913   -46908.498   0.30649463 
   25000    273.06653   -336.36276    125904.77   -43501.135    3333.1639   -46834.299   0.32260484 
   25200    280.20145   -578.28984     126251.4   -43523.671    3420.2558   -46943.927    0.2846298 
   25400    272.36213   -689.39431    126335.86   -43571.514    3324.5658    -46896.08   0.28815351 
   25600     274.4801   -465.92697    125974.74   -43596.379    3350.4186   -46946.798    0.3204613 
   25800    274.40596   -293.94823    125732.82   -43572.107    3349.5136   -46921.621   0.32271368 
   26000    276.41444   -458.79502    126012.32   -43555.678    3374.0299   -46929.708   0.29889154 
   26200    273.43188   -673.34641    126395.77    -43580.51    3337.6235   -46918.134   0.29992168 
   26400    274.29127    -611.5841    126270.44   -43602.307    3348.1136   -46950.421   0.29339338 
   26600    273.36945   -333.47708    125851.51   -43612.429    3336.8616    -46949.29   0.30952571 
   26800    274.66851    -384.4767    125827.99   -43616.758    3352.7184   -46969.476   0.32257458 
   27000    272.51355   -579.14533    126225.82   -43616.894    3326.4141   -46943.308   0.29033022 
   27200    273.83171   -681.90003    126389.88   -43611.102    3342.5041   -46953.606   0.27831936 
   27400    268.88146   -477.69542    126028.44   -43585.391    3282.0793    -46867.47   0.31106171 
   27600    271.62139   -267.07336    125736.01   -43596.536     3315.524    -46912.06   0.32592422 
   27800    271.69766   -467.38149    126010.75   -43582.105     3316.455    -46898.56   0.29980299 
   28000    275.22509   -727.32404     126436.1   -43572.733    3359.5122   -46932.246   0.28857057 
   28200    274.26344   -638.40419    126323.33   -43585.379    3347.7739   -46933.153   0.29215698 
   28400    270.00492   -304.37601    125834.87   -43587.671    3295.7927   -46883.463   0.30586734 
   28600    272.87895   -265.84189    125765.93   -43604.615    3330.8743   -46935.489   0.32488868 
   28800    271.63348   -606.84779    126210.09   -43614.411    3315.6716   -46930.083   0.29894574 
   29000     272.2754   -742.32534    126423.38   -43650.441    3323.5071   -46973.948   0.27596211 
   29200    270.64565   -473.89604    126040.91   -43685.512    3303.6136   -46989.126   0.30681497 
   29400    274.73403   -275.64359    125674.46   -43688.385    3353.5182   -47041.903   0.32494518 
   29600    271.03001   -405.34645     125885.5   -43652.468    3308.3053   -46960.773   0.30378402 
   29800     272.1378   -674.61811    126313.04   -43579.668    3321.8275   -46901.496   0.30050978 
   30000    275.30414   -659.05424    126317.04   -43567.886    3360.4772   -46928.363   0.29224699 
   30200     271.6201   -404.18474    125941.09   -43581.554    3315.5083   -46897.062    0.3029318 
   30400    268.12981   -402.72321     125803.5   -43631.856    3272.9043   -46904.761   0.32534347 
   30600    273.01074   -474.97709    126062.75   -43579.321     3332.483   -46911.804   0.30527911 
   30800    271.53163   -682.16661    126319.06   -43544.088    3314.4283   -46858.516   0.28763368 
   31000    273.14361   -577.34516    126204.11   -43536.765    3334.1049    -46870.87   0.31203278 
   31200    276.55995   -399.83523    125946.36   -43541.282    3375.8061   -46917.088   0.32074969 
   31400     275.3206   -394.66218     125945.7   -43537.963    3360.6781   -46898.641   0.30718898 
   31600    271.07606   -537.09073     126149.2   -43591.189    3308.8675   -46900.056   0.29812555 
   31800    277.38381   -592.65115    126209.27   -43560.855    3385.8625   -46946.717   0.29723928 
   32000    274.66414   -509.67705    126066.15   -43538.164     3352.665   -46890.829   0.29863944 
   32200    278.82262   -413.29884    125962.67    -43566.72    3403.4252   -46970.145   0.30766888 
   32400    269.30184   -506.62553     126065.8   -43567.525    3287.2106   -46854.736   0.31389293 
   32600    278.18843   -588.84986    126190.71   -43556.185     3395.684   -46951.869   0.29574962 
   32800    279.03274   -538.99092    126151.53   -43548.302    3405.9901   -46954.292    0.3028678 
   33000    272.28524   -498.04429    126059.29    -43541.12    3323.6272   -46864.747    0.3129727 
   33200    275.89823   -419.30614    126074.09   -43540.166    3367.7289   -46907.895   0.29396462 
   33400    277.50338   -511.68563    126172.13   -43502.235     3387.322   -46889.557   0.30053782 
   33600    278.99116   -526.91239    126171.94   -43441.468    3405.4825    -46846.95   0.30551831 
   33800    280.52177   -502.35701    126122.98   -43468.838    3424.1657   -46893.004   0.29498096 
   34000    280.60497    -445.6028    126107.36   -43504.181    3425.1813   -46929.362   0.30079982 
   34200    277.32015   -519.37901    126134.72   -43540.921    3385.0855   -46926.006   0.30514685 
   34400    273.81874   -531.76457    126113.84   -43591.048    3342.3458   -46933.393   0.29950339 
   34600    280.83751    -435.0891    126011.58   -43558.217    3428.0198   -46986.237   0.30609018 
   34800      270.826   -435.68703    125989.55   -43594.158    3305.8151   -46899.974   0.31289115 
   35000    269.43462   -530.18582    126064.61   -43623.922    3288.8314   -46912.753   0.29408679 
   35200    273.07172    -528.7631    126100.52   -43617.346    3333.2273   -46950.574   0.29385627 
   35400    275.81673   -514.68825    126044.75   -43589.489    3366.7341   -46956.223    0.3075523 
   35600    275.58063   -467.53834    126004.53   -43583.524    3363.8522   -46947.376   0.30604384 
   35800    272.05829   -522.77052    126061.05   -43581.371     3320.857   -46902.228   0.30644831 
   36000    270.92354   -562.86804    126149.02   -43580.693    3307.0058   -46887.698   0.30812947 
   36200    271.20905   -572.98888       126123   -43593.579    3310.4908    -46904.07     0.304031 
   36400    274.04893   -442.38839    125965.77   -43617.659    3345.1555   -46962.815   0.30269249 
   36600    275.83662   -403.71943    125900.69   -43594.281    3366.9769   -46961.258   0.31596445 
   36800    270.18987   -535.99397    126070.77   -43631.478    3298.0502   -46929.528   0.30321814 
   37000    273.46341   -580.48249    126214.31   -43619.436    3338.0084   -46957.444    0.2899392 
   37200    275.10121   -524.02865    126108.79   -43585.027    3358.0001   -46943.027   0.30460365 
   37400    273.88866    -375.0771    125896.55   -43578.111    3343.1993    -46921.31   0.31510595 
   37600     276.2258   -449.33718     125921.7   -43602.213    3371.7274   -46973.941   0.30258665 
   37800    272.16663   -603.92487    126168.01   -43568.324    3322.1794   -46890.503   0.31119545 
   38000    276.29763   -618.36713     126227.3   -43615.609    3372.6041   -46988.213   0.29884453 
   38200    269.07842   -481.26348    125943.65   -43611.031    3284.4834   -46895.514    0.3074482 
   38400    277.06002   -272.12425     125736.4   -43581.667    3381.9102   -46963.577   0.32600489 
   38600    273.88116   -501.88019    126015.05   -43578.677    3343.1077   -46921.785   0.31045815 
   38800    273.24411   -775.52576    126378.29    -43619.22    3335.3316   -46954.552   0.28387208 
   39000    271.39966   -608.22447    126201.11   -43643.751    3312.8174   -46956.569   0.30881057 
   39200    269.15765   -358.53153    125707.07   -43664.256    3285.4505   -46949.706   0.32710623 
   39400    271.34847   -257.68318    125679.23   -43655.773    3312.1926   -46967.966   0.32136913 
   39600    267.23857   -653.92589    126209.61   -43715.299    3262.0255   -46977.325   0.31430381 
   39800    268.32648   -759.42361    126418.92   -43701.805    3275.3049    -46977.11   0.29728003 
   40000    267.65315   -445.22863    125929.36   -43720.652     3267.086   -46987.738   0.30760704 
   40200     273.2142   -219.51188    125519.12   -43703.769    3334.9665   -47038.736   0.34510833 
   40400    276.01192   -426.19948     125876.6   -43692.278    3369.1166   -47061.394   0.32119613 
   40600     264.5032   -794.70283    126451.18   -43712.876    3228.6363   -46941.513   0.28012443 
   40800    268.54066   -678.32584     126337.8   -43724.807    3277.9194   -47002.726   0.29807656 
   41000    267.43926   -320.78605    125692.43   -43694.986    3264.4751   -46959.461   0.33556741 
   41200    266.73491   -244.38544    125523.65   -43719.622    3255.8776     -46975.5   0.32881151 
   41400    271.46224   -560.99025    126068.53   -43691.237    3313.5813   -47004.818   0.31042389 
   41600    272.61965   -760.20128    126440.43   -43679.724    3327.7092   -47007.433   0.28858417 
   41800    271.68523   -550.87359     126094.9   -43678.943    3316.3032   -46995.246   0.29270588 
   42000    267.52051   -264.28275     125630.1   -43662.726    3265.4669   -46928.193   0.34357983 
   42200    271.19224   -369.27701    125776.02   -43683.161    3310.2856   -46993.447     0.326259 
   42400    266.09994   -675.58891    126234.77   -43722.974    3248.1269   -46971.101   0.28604766 
   42600    263.25317   -675.95106     126229.4    -43749.91     3213.378   -46963.288   0.30714045 
   42800    271.35583   -396.55169    125790.09   -43752.274    3312.2824   -47064.556   0.31971013 
   43000    271.72132   -284.13257     125647.1    -43714.87    3316.7437   -47031.613   0.31624885 
   43200    268.74485   -551.50127    126021.98    -43718.01    3280.4118   -46998.422   0.32500305 
   43400    266.61241   -687.22038    126271.38   -43702.358    3254.3823   -46956.741    0.3062196 
   43600    272.32069   -541.99132    126058.76   -43704.674    3324.0599   -47028.734   0.29504485 
   43800    270.40901   -353.75619    125758.66   -43676.334    3300.7252   -46977.059   0.33212892 
   44000    269.76663   -427.58624    125862.56   -43694.564     3292.884   -46987.448   0.32601847 
   44200    268.93865   -582.86999    126151.57   -43743.907    3282.7774   -47026.684   0.28834201 
   44400    269.05103   -553.82537    126125.25   -43723.319    3284.1491   -47007.468   0.31698504 
   44600    271.83704   -431.47499    125855.91   -43662.153    3318.1564   -46980.309   0.32701364 
   44800    272.84382    -369.8414    125817.81    -43628.99    3330.4454   -46959.436    0.3105856 
   45000    274.16368   -553.77832    126070.58   -43653.045    3346.5562   -46999.602   0.32407701 
   45200     266.3599   -651.26847    126196.53   -43668.083    3251.3001   -46919.383   0.31889702 
   45400    270.68684   -498.93868    125962.47   -43716.319    3304.1165   -47020.435   0.30631625 
   45600     276.6423   -363.25812    125736.33   -43704.811    3376.8113   -47081.622   0.33135987 
   45800    268.36876   -460.20761    125902.33   -43676.634    3275.8211   -46952.455   0.32618902 
   46000    270.66778   -588.28173    126195.64   -43672.116    3303.8838       -46976   0.28755368 
   46200    270.51207   -609.40874    126182.88   -43695.056    3301.9831   -46997.039   0.30951162 
   46400    265.01491   -470.86773    125881.16   -43684.012    3234.8825   -46918.894   0.33313759 
   46600    272.16798   -351.88953    125762.27   -43690.491    3322.1959   -47012.687   0.31128453 
   46800    269.79841   -532.74766    126014.99   -43653.843     3293.272   -46947.115   0.32165493 
   47000    276.14335   -613.28315    126218.05   -43634.906    3370.7209   -47005.627   0.31365403 
   47200    274.05883   -570.77998    126095.05    -43610.91    3345.2764   -46956.187    0.2975249 
   47400     277.5034   -358.92949    125872.45   -43546.022    3387.3223   -46933.344   0.31806147 
   47600    272.99814   -409.24852    125934.03   -43523.274    3332.3292   -46855.604    0.3331969 
   47800    276.86772   -604.12952    126193.89    -43494.19    3379.5629   -46873.753   0.29327641 
   48000     274.5792   -619.17137    126257.86    -43497.86    3351.6283   -46849.488   0.31187366 
   48200    277.68283   -470.44747    126034.09   -43499.751    3389.5125   -46889.263   0.32525178 
   48400    278.91678   -373.91878    125904.41   -43483.746    3404.5746    -46888.32   0.30787082 
   48600     275.5908    -501.4937    126093.09   -43536.583    3363.9763   -46900.559   0.31047767 
   48800    276.46912   -604.98533     126249.8   -43484.911    3374.6974   -46859.608   0.31333507 
   49000    281.15382   -552.92832    126144.81   -43463.417    3431.8808   -46895.298   0.30064637 
   49200    274.16799   -446.36823    125964.64   -43498.544    3346.6088   -46845.153   0.32543787 
   49400    275.00832   -433.11733    126002.08   -43509.561    3356.8663   -46866.427   0.32432351 
   49600    272.68216   -587.12652    126193.81     -43528.2    3328.4721   -46856.672   0.29112823 
   49800    276.85611   -595.77742    126222.24   -43508.747    3379.4212   -46888.168   0.29942578 
   50000    279.40884   -463.80768    126049.09   -43508.304    3410.5809   -46918.885   0.32083012 
   50200     278.4844   -441.20714    125972.27   -43544.232    3399.2968   -46943.529   0.30402645 
   50400    275.83388   -501.16753    126060.71   -43542.754    3366.9434   -46909.697   0.31341103 
   50600    274.13829   -605.57761    126152.94   -43561.027    3346.2463   -46907.273   0.32051958 
   50800    271.37074   -549.38339    126080.96   -43569.252    3312.4644   -46881.716   0.30963769 
   51000    278.82716   -442.84842    125973.49   -43522.197    3403.4807   -46925.678   0.30805361 
   51200    277.20414   -416.84458    126019.98   -43544.974    3383.6694   -46928.644   0.32816073 
   51400    271.80271   -533.55347    126167.58   -43510.386    3317.7373   -46828.123   0.29957758 
   51600    279.88405   -568.76402       126176   -43512.123    3416.3815   -46928.504   0.29943424 
   51800    275.65785   -491.98694     125997.9   -43511.249    3364.7947   -46876.044     0.331013 
   52000    278.24468    -378.9425    125919.78   -43466.904    3396.3707   -46863.275   0.31257182 
   52200    276.89917   -521.41128    126111.77   -43438.531    3379.9468   -46818.478   0.30577034 
   52400    278.71359   -621.99358    126315.08   -43424.902    3402.0943   -46826.996   0.32056218 
   52600    277.89359   -562.37467    126238.12   -43461.564    3392.0851   -46853.649   0.29842829 
   52800    274.76575   -426.89431    125991.86   -43481.022    3353.9053   -46834.927   0.31000071 
   53000    275.37595   -402.65507    125949.54   -43487.911    3361.3537   -46849.265   0.33502704 
   53200    276.58708   -557.69508    126193.21   -43495.365    3376.1372   -46871.502   0.29176126 
   53400    281.55087   -634.06158    126342.49   -43514.588    3436.7274   -46951.316   0.28266798 
   53600    273.53026    -559.0709    126134.43   -43547.799    3338.8245   -46886.624   0.32893402 
   53800    278.07754     -348.678    125858.24   -43537.208    3394.3304   -46931.538   0.31142556 
   54000    269.97163   -458.85245    125959.43   -43527.756    3295.3863   -46823.142    0.3099611 
   54200    275.92753   -634.34685    126313.86   -43531.573    3368.0866    -46899.66   0.31162331 
   54400     271.4068   -639.32287    126369.41   -43553.218    3312.9047   -46866.123   0.28671518 
   54600    276.86625   -398.05762    125950.78   -43552.101    3379.5449   -46931.646   0.30005147 
   54800    276.13654   -216.94252    125692.17   -43503.441    3370.6378   -46874.079   0.34617495 
   55000    274.61598   -516.19243    126126.41   -43503.744    3352.0772   -46855.821   0.30222975 
   55200    274.03238   -818.20516    126616.22    -43528.41    3344.9535   -46873.364   0.26819233 
   55400    271.92459   -623.30818    126293.36   -43550.065     3319.225    -46869.29   0.31396054 
   55600    275.47285   -220.83369    125583.25    -43585.86    3362.5365   -46948.396    0.3305914 
   55800    273.88992   -201.65533    125623.63   -43563.039    3343.2147   -46906.254     0.324345 
   56000     275.9005   -709.84512    126427.41   -43542.812    3367.7566   -46910.569   0.31265752 
   56200    274.50427   -870.57675    126696.45   -43561.373    3350.7136   -46912.087   0.27418817 
   56400    270.96905   -453.80599    125966.48   -43573.219    3307.5613    -46880.78   0.30619162 
   56600    276.86137   -139.96227    125419.68   -43581.409    3379.4854   -46960.895   0.36393725 
   56800     278.8744   -399.88025    125917.96   -43541.617    3404.0573   -46945.674   0.30788668 
   57000    272.86867   -806.41223    126630.24   -43528.806    3330.7488   -46859.555   0.26747744 
   57200    271.18582   -753.34196    126444.11   -43563.017    3310.2072   -46873.225   0.31024728 
   57400    276.16608   -265.65357    125728.64   -43588.458    3370.9984   -46959.457   0.32602679 
   57600    272.77789     -200.673    125625.84   -43557.652    3329.6407   -46887.293   0.31898437 
   57800    275.33123   -562.73702    126216.62   -43568.143    3360.8079   -46928.951    0.3136741 
   58000    277.00817   -751.35751    126530.94   -43576.975    3381.2773   -46958.252   0.27595064 
   58200    272.11781   -516.13338    126114.51   -43617.333    3321.5835   -46938.916   0.28724229 
   58400    272.96581   -258.76774    125620.39   -43614.139    3331.9345   -46946.073   0.35189888 
   58600    276.96466   -281.22489    125773.49   -43597.434    3380.7462    -46978.18   0.31939606 
   58800    269.11761    -689.8941    126303.67   -43622.279    3284.9618   -46907.241   0.28798315 
   59000    272.59207   -744.56922    126364.43   -43643.537    3327.3725    -46970.91   0.31368207 
   59200     272.1916   -454.26526    125897.48   -43647.862    3322.4843   -46970.346   0.32227724 
   59400    273.83786   -268.62957    125650.84   -43599.451    3342.5792    -46942.03   0.32516716 
   59600    276.08108   -481.77811    126021.24   -43595.282    3369.9609   -46965.243   0.33023406 
   59800    276.51102   -744.28952    126416.53   -43578.708    3375.2088   -46953.917   0.29222153 
   60000    274.54745    -582.2076    126235.54   -43568.598    3351.2408   -46919.839   0.28861933 
   60200      277.282   -324.59636    125812.55   -43548.576    3384.6197   -46933.196   0.34821183 
   60400    280.65091   -345.93487    125830.78   -43520.932    3425.7421   -46946.674   0.32035996 
   60600    276.57745   -601.75484     126243.1   -43554.669    3376.0197   -46930.689   0.28737868 
   60800    277.66582   -646.91146    126343.43   -43498.289    3389.3049   -46887.594   0.31129698 
   61000    278.97241   -446.38416       125986   -43537.012    3405.2537   -46942.266   0.31643557 
   61200    277.93937   -285.63534     125774.7   -43542.108    3392.6439   -46934.752    0.3136267 
   61400    279.24019   -469.33144    126075.52    -43539.72    3408.5222   -46948.243     0.319464 
   61600    276.44806   -697.68279    126389.02   -43529.089    3374.4403   -46903.529   0.28773013 
   61800    273.14344   -583.88555    126214.92   -43530.507    3334.1028   -46864.609   0.29596108 
   62000     278.1875   -357.54842    125825.21   -43548.357    3395.6727   -46944.029   0.33540529 
   62200    275.32988   -370.34392     125807.7   -43554.235    3360.7913   -46915.026    0.3280843 
   62400    276.31772   -579.44461    126183.33   -43521.597    3372.8493   -46894.446   0.29707828 
   62600    276.90983   -694.41342    126333.16   -43540.298    3380.0769   -46920.375    0.3080991 
   62800    279.77623   -498.62739    125999.12    -43515.09    3415.0654   -46930.155   0.31746682 
   63000    275.08498   -302.29217    125727.46   -43492.043     3357.802   -46849.845    0.3209388 
   63200    280.09122   -447.47202    125970.88   -43495.753    3418.9103   -46914.663   0.33165084 
   63400    279.05948   -693.02623    126348.61   -43454.242    3406.3165   -46860.559   0.29948346 
   63600    275.90083   -660.10703    126302.99   -43434.608    3367.7606   -46802.369   0.29729733 
   63800    273.62786   -373.33519    125896.89   -43461.893    3340.0158   -46801.908   0.33775764 
   64000    284.60493   -289.59667       125820   -43468.612    3474.0065   -46942.619   0.31906408 
   64200    277.58905   -562.30406    126203.68   -43470.873    3388.3678   -46859.241    0.2904787 
   64400    278.08634   -682.24087    126418.69    -43451.78    3394.4379   -46846.218   0.30643317 
   64600    277.46464   -537.72837    126119.53   -43503.178    3386.8492   -46890.027   0.30517163 
   64800    278.15545   -280.70096    125777.88   -43516.351    3395.2815   -46911.633   0.31527027 
   65000    273.99195   -409.05309    125938.02   -43513.364    3344.4601   -46857.824   0.32780226 
   65200    278.93673   -662.97956    126360.35     -43530.9    3404.8181   -46935.719   0.28588584 
   65400    275.49902    -647.3169    126377.36   -43548.794    3362.8559    -46911.65   0.28340591 
   65600    270.45462   -418.22331    125961.28   -43577.477    3301.2819   -46878.759   0.33557854 
   65800    276.34154   -293.01018    125771.85   -43553.899    3373.1401   -46927.039   0.32548851 
   66000    277.59346   -459.20968    126110.59   -43548.853    3388.4216   -46937.275    0.2914554 
   66200    277.92349     -702.986    126469.62   -43574.748      3392.45   -46967.198    0.2970174 
   66400      271.379   -612.75807     126240.1   -43572.036    3312.5653   -46884.602   0.29811558 
   66600     274.4895   -357.77484    125727.29   -43591.398    3350.5334   -46941.932   0.32444582 
   66800    277.67453   -311.85248    125709.36   -43568.669    3389.4111    -46958.08   0.33872199 
   67000    274.52948    -611.1992    126241.19   -43583.436    3351.0213   -46934.457   0.29399819 
   67200    271.66283   -761.17269    126489.87   -43598.539    3316.0299   -46914.569   0.28418327 
   67400    270.04087   -465.94626    125972.22   -43633.292    3296.2315   -46929.524   0.33348062 
   67600    274.80653   -148.17067    125447.12   -43597.833    3354.4032   -46952.236   0.34613081 
   67800    275.67484   -361.58893    125818.97   -43552.251    3365.0021   -46917.253   0.30540147 
   68000    274.13216   -849.38869    126667.03   -43540.657    3346.1715   -46886.829   0.29161659 
   68200    276.44617    -869.5237    126622.59   -43605.078    3374.4172   -46979.495   0.28724847 
   68400    274.54154   -247.63123    125626.69   -43562.587    3351.1686   -46913.756   0.32246218 
   68600    282.64224   -11.785841    125261.65   -43552.427     3450.049   -47002.476    0.3604576 
   68800    277.60311    -516.9092    126168.04   -43520.075    3388.5393   -46908.614   0.30825186 
   69000    273.01434   -1021.2167    126927.95   -43549.528     3332.527   -46882.055   0.26251811 
   69200    272.95833   -654.87584    126315.98   -43560.677    3331.8432    -46892.52   0.30888442 
   69400    272.22279   -111.38293    125417.99   -43601.021     3322.865   -46923.886   0.34836404 
   69600    269.76335   -211.03257     125622.5   -43614.421    3292.8439   -46907.265   0.31648153 
   69800    274.09228   -740.90723    126446.78   -43580.098    3345.6847   -46925.783   0.29395732 
   70000    276.23882   -788.19166    126583.28   -43540.993    3371.8863   -46912.879   0.29129895 
   70200    275.48998    -450.7004    126001.65   -43543.913    3362.7457   -46906.658   0.30421094 
   70400    279.28477   -254.88205    125687.75   -43552.027    3409.0664   -46961.094    0.3396272 
   70600    275.77259   -433.52714    126018.68   -43525.813    3366.1953   -46892.008   0.31808039 
   70800    276.74992   -742.07412    126410.78   -43542.635     3378.125    -46920.76   0.28326041 
   71000    276.18784   -604.67034    126283.15   -43582.394    3371.2639   -46953.658   0.30338525 
   71200    273.84472   -363.02427    125844.56   -43591.138    3342.6629   -46933.801   0.33142839 
   71400    279.78407   -302.01921    125777.39   -43566.117    3415.1611   -46981.278   0.31248514 
   71600    276.18114   -528.87422    126166.78   -43543.279    3371.1823   -46914.461   0.31002752 
   71800    274.18154    -675.5899    126390.28   -43552.026    3346.7743     -46898.8   0.30255672 
   72000    274.07952   -539.83323    126138.51   -43584.384    3345.5289   -46929.913   0.29496491 
   72200    269.76034   -356.13597    125826.74   -43616.888    3292.8072   -46909.695   0.32185787 
   72400    273.31656   -413.90486     125920.8   -43595.674     3336.216    -46931.89   0.32774873 
   72600     271.8002   -621.07778    126258.21   -43572.034    3317.7067   -46889.741   0.28715912 
   72800    271.78282   -654.81572     126317.4   -43633.757    3317.4944   -46951.251   0.29107005 
   73000    268.81358   -481.13886    126003.29    -43640.05    3281.2507     -46921.3   0.32247855 
   73200     271.4957   -364.66476    125828.92    -43660.18    3313.9898    -46974.17   0.30769902 
   73400    271.72983   -470.30271    126070.39   -43641.539    3316.8477   -46958.386   0.30253333 
   73600    270.65002   -638.50727    126343.89   -43625.436     3303.667   -46929.103   0.30148632 
   73800    267.55268   -584.72653    126212.38   -43627.392    3265.8596   -46893.252   0.29579158 
   74000     272.2678    -380.2403    125867.32   -43663.237    3323.4144   -46986.651   0.30961882 
   74200    271.95345   -394.04133    125831.76   -43669.827    3319.5772   -46989.404   0.32857189 
   74400    272.66121   -515.99673    126159.66   -43638.843    3328.2165   -46967.059   0.29332332 
   74600    273.25356   -676.09148    126317.87   -43646.972     3335.447   -46982.419   0.29387372 
   74800    272.80763    -461.6219    126036.67   -43661.573    3330.0038   -46991.577   0.31545775 
   75000    276.28225   -316.11166    125792.58   -43633.957    3372.4165   -47006.374   0.30942294 
   75200    277.27783   -420.16509    125970.15   -43613.211    3384.5688    -46997.78   0.29950343 
   75400    273.82562   -595.35974    126310.06   -43606.049    3342.4298   -46948.479   0.30030194 
   75600    273.46214   -638.09298    126281.28    -43581.35     3337.993   -46919.343   0.29997708 
   75800    278.69341   -402.95984    125941.93   -43558.622     3401.848    -46960.47   0.30038923 
   76000    275.97574   -325.84813    125837.25   -43555.406     3368.675   -46924.081    0.3237883 
   76200    274.29091   -510.19677    126164.75   -43574.911    3348.1093   -46923.021   0.30256885 
   76400    278.78999    -655.3445    126413.67    -43547.23    3403.0269   -46950.257   0.28202685 
   76600    272.18681   -544.99449    126189.86   -43536.698    3322.4258   -46859.124   0.31530449 
   76800    273.93152   -358.53718    125832.44     -43534.7    3343.7224   -46878.422   0.32447341 
   77000    275.98628   -361.13535    125917.41   -43543.514    3368.8037   -46912.317   0.30657191 
   77200    275.26824    -641.1122    126355.67   -43582.992     3360.039   -46943.031   0.29582461 
   77400    274.05523   -698.68286    126434.53   -43560.705    3345.2325   -46905.938   0.29279703 
   77600    273.01372   -405.91651    125952.96   -43589.403    3332.5193   -46921.922   0.30602982 
   77800    278.28425   -259.70639    125651.57   -43599.939    3396.8537   -46996.792   0.33416162 
   78000    270.96485   -480.86814    126007.27    -43600.46      3307.51    -46907.97   0.31915517 
   78200    271.58191   -763.64507     126441.1   -43585.084     3315.042   -46900.126   0.28933785 
   78400    275.89361   -613.14621    126233.51   -43612.479    3367.6725   -46980.151   0.29940918 
   78600    269.20576   -261.27281    125674.47   -43622.979    3286.0379   -46909.017   0.32908697 
   78800    273.93625   -283.10259    125687.01   -43604.612    3343.7802   -46948.392    0.3172799 
   79000    270.80054   -687.05286    126337.04   -43594.958    3305.5043   -46900.462   0.30191045 
   79200    274.96278   -834.35204     126616.1   -43594.145    3356.3104   -46950.455   0.28431924 
   79400    275.83784   -442.01516    126018.54   -43555.882    3366.9918   -46922.873   0.30623546 
   79600    272.71313   -136.52749    125461.65   -43556.658    3328.8502   -46885.508   0.34313151 
   79800    271.42877   -387.40794    125886.24   -43575.513    3313.1728   -46888.685   0.32434457 
   80000    278.24171   -850.14842    126658.67   -43548.859    3396.3344   -46945.193    0.2774195 
   80200    277.62651   -753.72428    126550.16   -43507.602     3388.825   -46896.427   0.28549851 
   80400    275.48416   -268.08163    125750.82   -43500.836    3362.6746    -46863.51   0.32527103 
   80600    276.75598   -131.75073    125524.93   -43520.939     3378.199   -46899.138   0.33600781 
   80800    277.15578   -558.95952     126232.7    -43472.23    3383.0791   -46855.309   0.30246098 
   81000    277.46851   -899.91482    126759.44   -43515.015    3386.8963   -46901.911   0.27461018 
   81200    277.09089    -587.7355    126319.63   -43500.115     3382.287   -46882.402    0.2958678 
   81400    283.29535   -228.51523    125674.67   -43478.122    3458.0212   -46936.143   0.32980817 
   81600    274.86971   -309.10433    125813.47   -43495.063    3355.1743   -46850.238   0.32860068 
   81800    277.68264   -644.71306    126420.47   -43497.376    3389.5101   -46886.886   0.28873017 
   82000     283.6012   -727.53948    126554.24    -43469.36    3461.7545   -46931.114   0.28722919 
   82200    275.26607   -479.31782    126106.18   -43513.982    3360.0125   -46873.994    0.3085154 
   82400    277.89725   -310.89186    125800.61   -43524.422    3392.1297   -46916.552   0.32518131 
   82600    272.06309   -442.80946    126000.37   -43547.606    3320.9156   -46868.521   0.32094103 
   82800     274.9275   -591.29141    126296.53   -43582.458    3355.8798   -46938.338   0.29316894 
   83000    273.35329   -566.94367    126256.42   -43570.449    3336.6643   -46907.113    0.3026978 
   83200    274.79485   -431.99483     126011.9   -43586.698    3354.2606   -46940.959   0.30984339 
   83400    277.22321   -411.44533    125928.81   -43612.809    3383.9021   -46996.711   0.30681286 
   83600    272.68989   -552.58939    126099.63   -43623.763    3328.5666    -46952.33    0.3159094 
   83800    276.18591   -584.97051    126234.55   -43574.325    3371.2404   -46945.565   0.30982058 
   84000     278.4211   -531.83121     126140.7   -43599.401    3398.5241   -46997.925   0.29686011 
   84200     272.5172    -422.8797    126002.99   -43584.572    3326.4586   -46911.031   0.31614488 
   84400    272.96258   -474.99307    126041.01   -43600.306    3331.8951   -46932.201   0.31433744 
   84600    270.27958   -537.33883    126139.99   -43590.901    3299.1453   -46890.047   0.30096053 
   84800    272.95148   -542.94417    126138.58   -43606.565    3331.7596   -46938.325   0.30212229 
   85000    275.40158   -469.88724    126061.32   -43569.811    3361.6666   -46931.478   0.30796739 
   85200    276.69623    -457.9928     126061.7   -43541.815    3377.4696   -46919.285   0.29911823 
   85400    271.39336   -501.86223    126153.93   -43524.014    3312.7406   -46836.754   0.31099078 
   85600      279.159   -535.51084     126167.5   -43531.457    3407.5312   -46938.989   0.30503933 
   85800    274.53441    -476.7159    126051.68   -43535.671    3351.0816   -46886.753   0.30525325 
   86000    281.07542   -428.64123    125996.69    -43501.37    3430.9239   -46932.294   0.30949609 
   86200    276.16877   -518.29702    126131.05   -43509.359    3371.0312    -46880.39   0.30887774 
   86400    278.61522   -572.53225    126257.02   -43506.502    3400.8936   -46907.395    0.2835834 
   86600    278.56788   -561.02789    126167.91    -43491.06    3400.3158   -46891.375    0.3074533 
   86800    276.79003   -466.03122    125990.16   -43528.087    3378.6146   -46906.701   0.31610061 
   87000    276.62294   -473.17135    125982.59   -43544.186     3376.575   -46920.761   0.30324752 
   87200    275.42783   -535.62414    126109.41    -43521.42     3361.987   -46883.407   0.32231229 
   87400    275.33422    -543.6185    126178.21    -43493.38    3360.8443   -46854.224   0.31096394 
   87600    277.31485   -507.31615    126097.76   -43539.543    3385.0207   -46924.564   0.29575156 
   87800    275.58251   -443.72523    125974.98   -43553.166    3363.8751   -46917.042   0.32259066 
   88000    274.20124   -436.55341    125997.89   -43515.847    3347.0147   -46862.862   0.31576386 
   88200    278.12027   -572.60389    126129.06   -43537.122    3394.8521   -46931.974   0.29754789 
   88400    273.02299   -569.33821    126158.14   -43524.236    3332.6325   -46856.869   0.32168824 
   88600    277.61084   -484.31131     126047.2   -43542.995    3388.6338   -46931.629   0.31412162 
   88800     272.5112   -462.25239    125970.54   -43540.969    3326.3854   -46867.355   0.30607049 
   89000    277.53119   -446.61522    126033.21   -43553.679    3387.6615   -46941.341   0.32952676 
   89200    275.85226   -560.53989    126158.93   -43528.716    3367.1677   -46895.884   0.31526365 
   89400    278.06787   -523.16494    126167.02   -43499.145    3394.2124   -46893.358   0.29779931 
   89600    276.67562   -471.50604    126035.81   -43526.525     3377.218   -46903.743   0.32319927 
   89800     278.6966   -367.20488     125952.4   -43545.487     3401.887   -46947.374   0.30694311 
   90000    273.75392    -574.6453    126049.07   -43556.592    3341.5545   -46898.146   0.30574984 
   90200    273.27667   -584.61001    126149.35   -43595.594     3335.729   -46931.323   0.31773436 
   90400    272.44048   -579.59881    126085.53   -43620.097    3325.5222   -46945.619   0.31211073 
   90600    276.24859   -422.80494    125908.49    -43608.14    3372.0055   -46980.145   0.30213137 
   90800    274.92537   -424.21816    125921.77   -43621.556    3355.8537   -46977.409    0.3241805 
   91000    272.20592   -544.54477    126122.54   -43619.807    3322.6591   -46942.466   0.30578354 
   91200    272.98396   -605.47402    126196.72   -43631.062    3332.1561   -46963.218   0.29325289 
   91400    271.80963   -430.07042    126012.61   -43625.678    3317.8217     -46943.5   0.31524321 
   91600    274.61889   -380.01783    125859.61   -43633.595    3352.1128   -46985.707   0.31572037 
   91800    275.07205   -461.58493    125984.21   -43609.042    3357.6442   -46966.686   0.29948414 
   92000    269.89109   -614.49765    126204.81   -43619.606    3294.4033   -46914.009   0.31292368 
   92200    269.41877   -616.66689     126161.5   -43637.701    3288.6379   -46926.339    0.3073125 
   92400    271.12839   -413.65745    125887.07   -43599.096    3309.5062   -46908.602   0.30034636 
   92600    273.88608   -359.52545    125855.09   -43650.545    3343.1677   -46993.713   0.32914011 
   92800    273.03712   -612.61863    126156.51   -43625.905    3332.8049    -46958.71   0.30673639 
   93000    274.50137   -597.61268    126300.25   -43561.317    3350.6782   -46911.995   0.28145235 
   93200    273.85193   -548.50704    126096.53   -43563.836    3342.7509   -46906.587    0.3165837 
   93400    272.11579    -376.3372     125860.7   -43565.441    3321.5588       -46887   0.32171913 
   93600    272.46393   -434.31865    125948.58   -43548.451    3325.8084   -46874.259   0.30191261 
   93800    278.53809    -630.6972    126181.88   -43545.547    3399.9521   -46945.499   0.31313695 
   94000    272.12977   -573.22473    126154.89   -43547.833    3321.7295   -46869.563   0.31197543 
   94200     269.9101   -420.78782     125876.3   -43619.842    3294.6352   -46914.477   0.30844032 
   94400     274.0236   -350.99086    125773.35   -43606.336    3344.8464   -46951.182   0.33550038 
   94600    272.00106   -507.70157    126040.58   -43599.847    3320.1584   -46920.005   0.32270307 
   94800    269.35918   -716.55399    126284.35   -43647.599    3287.9105    -46935.51   0.28969247 
   95000    267.72463   -524.70446    126067.98   -43656.417    3267.9585   -46924.375   0.31605871 
   95200    267.46613   -341.64532     125756.8   -43659.652    3264.8032   -46924.455   0.33056232 
   95400    268.33372   -375.93706    125870.94   -43675.774    3275.3933   -46951.168   0.30358708 
   95600    271.33625   -599.89055    126245.36   -43635.106    3312.0435    -46947.15   0.29851104 
   95800    275.36619    -640.6328    126326.72   -43603.278    3361.2345   -46964.513   0.30836847 
   96000    276.94973   -464.76238    125975.66   -43603.748    3380.5639   -46984.312   0.30431461 
   96200    273.59806   -327.19915    125753.19   -43632.453    3339.6521   -46972.105   0.32220213 
   96400    269.17575   -471.05187    126023.25   -43626.886    3285.6715   -46912.557   0.32300173 
   96600    275.38705   -731.11568    126404.37   -43636.804    3361.4893   -46998.293   0.27919499 
   96800    272.44104   -638.46339    126240.21   -43685.481     3325.529    -47011.01   0.29243624 
   97000    274.11524   -276.45908    125719.87   -43675.871    3345.9649   -47021.835   0.32914404 
   97200    276.74776   -284.55151     125660.3   -43668.215    3378.0986   -47046.313   0.31926083 
   97400    274.29854   -585.27423    126194.78   -43624.847    3348.2024   -46973.049   0.29381594 
   97600    274.90363   -793.78219    126518.96   -43597.256    3355.5884   -46952.844   0.29705584 
   97800    268.72427   -538.86879    126110.59   -43595.425    3280.1606   -46875.586   0.30917495 
   98000     278.3486   -191.36476    125588.42   -43574.322    3397.6391   -46971.961   0.32330318 
   98200    275.86625   -347.89878    125780.81   -43583.409    3367.3385   -46950.748   0.33165261 
   98400    273.24201   -703.06284    126389.04   -43515.993    3335.3059   -46851.299   0.29690251 
   98600    273.82496   -743.27211    126478.12   -43556.467    3342.4217   -46898.889   0.27854839 
   98800    278.47777   -442.61053    125906.01   -43527.697    3399.2159   -46926.913   0.32658962 
   99000    277.87902   -175.67649     125584.7   -43533.232    3391.9072   -46925.139   0.32896072 
   99200    278.11336    -521.9355    126031.43   -43593.252    3394.7676    -46988.02   0.30322417 
   99400     270.7427   -790.07512    126482.84   -43668.231    3304.7984    -46973.03    0.3019164 
   99600    270.05722   -670.20814    126189.02   -43689.385    3296.4311   -46985.816   0.31122783 
   99800    266.88541     -286.616    125598.93   -43663.231    3257.7146   -46920.945   0.33328677 
  100000    270.06994    -270.9407    125660.51   -43670.221    3296.5863   -46966.807   0.33636394 
  100200    271.49767   -661.13393    126265.48    -43630.98    3314.0139   -46944.993   0.30053019 
  100400    274.63059   -771.14655    126450.11   -43609.952    3352.2556   -46962.207   0.28890895 
  100600     271.3709   -434.78143    125963.77   -43573.696    3312.4664   -46886.162   0.32085346 
  100800    274.41024   -273.12264     125607.7    -43604.05    3349.5658   -46953.616   0.33273243 
  101000    275.19818   -412.64589    125890.08   -43594.886    3359.1837   -46954.069   0.31907511 
  101200    273.72914   -694.89148    126338.24   -43558.758    3341.2521    -46900.01   0.30389802 
  101400    271.13415   -613.96822    126270.44   -43578.529    3309.5765   -46888.105   0.29919566 
  101600    278.44766   -395.74197    125865.82   -43589.932    3398.8483    -46988.78   0.31656424 
  101800    276.75536   -320.68902    125775.08   -43564.273    3378.1913   -46942.464   0.32561492 
  102000    277.28029   -510.83664    126131.07   -43571.051    3384.5989    -46955.65   0.30276075 
  102200    277.37896   -660.47452    126346.13   -43553.915    3385.8033   -46939.719   0.29598477 
  102400    275.67541   -507.79832    126116.84   -43508.871     3365.009    -46873.88   0.31046916 
  102600    273.69139   -418.78042    125904.03   -43513.792    3340.7913   -46854.584   0.31585567 
  102800      277.593   -429.04716     125967.5   -43529.766    3388.4159   -46918.181   0.31567749 
  103000    271.88305   -538.50478    126115.36   -43521.597     3318.718   -46840.315    0.3149577 
  103200    276.60076   -510.65481    126124.13    -43504.24    3376.3042   -46880.544   0.30054773 
  103400    280.06169   -523.71757    126054.17   -43533.429    3418.5498   -46951.979   0.31740328 
  103600    271.30413   -441.45308    126015.26   -43536.771    3311.6513   -46848.422   0.30957839 
  103800    273.60277   -512.10786     126067.3   -43534.187    3339.7095   -46873.897   0.30646147 
  104000    269.67168   -566.39039    126132.35   -43545.351    3291.7251   -46837.077   0.31450916 
  104200     275.0251   -503.18363    126124.51   -43554.284    3357.0712   -46911.356   0.31388281 
  104400    278.01154   -494.12292    126065.53   -43575.187    3393.5248   -46968.712   0.29631679 
  104600    275.98979   -484.10138     126047.8   -43565.393    3368.8466    -46934.24   0.30371385 
  104800    277.22644   -502.29868    126104.31   -43560.854    3383.9415   -46944.795    0.3100031 
  105000    275.41072   -527.41114    126140.67   -43589.314    3361.7782   -46951.092   0.29794127 
  105200    275.29323     -474.212    126056.23   -43587.754     3360.344   -46948.098   0.31124827 
  105400     277.6216   -418.83963    125975.27    -43582.56    3388.7651   -46971.325   0.31264764 
  105600    275.90253   -506.24352    126044.28   -43577.114    3367.7814   -46944.896   0.29896692 
  105800    276.78761   -557.17705    126156.12   -43596.021    3378.5851   -46974.606    0.3070535 
  106000    277.00569   -548.06212    126131.59   -43558.408     3381.247   -46939.655   0.30442385 
  106200    274.03816   -431.02634    126020.28   -43543.037    3345.0241   -46888.061   0.29995298 
  106400    275.29119   -443.02536    126043.44   -43572.082    3360.3191   -46932.401   0.30480848 
  106600    278.41593    -544.7202    126170.12   -43573.307     3398.461   -46971.768   0.29697347 
  106800    269.23044   -546.58767    126153.78   -43566.481     3286.339    -46852.82   0.30332031 
  107000    272.90176   -445.13705    126020.96    -43528.51    3331.1527   -46859.663   0.30998807 
  107200    276.38408   -397.17023    125988.87   -43518.828    3373.6593   -46892.488   0.31052671 
  107400    275.37999   -531.40344    126155.24   -43524.159     3361.403   -46885.562   0.30315237 
  107600    278.20382   -615.49368    126291.38    -43503.11    3395.8719   -46898.982   0.29346535 
  107800    275.65838   -511.42652    126152.85   -43522.841    3364.8012   -46887.642   0.30886011 
  108000    279.75555   -346.21895     125935.5   -43503.716    3414.8129   -46918.529   0.30868489 
  108200    273.28609   -431.73176    126042.44   -43533.508     3335.844   -46869.352   0.30851795 
  108400    280.50308   -619.30536    126355.74   -43530.349    3423.9376   -46954.286    0.2923124 
  108600    277.24219   -643.20223    126374.37   -43508.838    3384.1338   -46892.972   0.28754687 
  108800    277.36634   -437.03351    126042.04   -43527.044    3385.6493   -46912.693   0.31192099 
  109000    275.16705   -336.04083    125846.06   -43561.517    3358.8038   -46920.321   0.32235903 
  109200    274.94274   -523.43064    126099.91   -43569.665    3356.0658   -46925.731   0.29792366 
  109400    276.32706   -669.64371    126387.98   -43546.529    3372.9634   -46919.493    0.2872703 
  109600    279.40496   -568.90488    126233.34   -43515.988    3410.5335   -46926.522   0.29982253 
  109800    276.12211   -337.65604    125860.37   -43566.776    3370.4617   -46937.238   0.31747745 
  110000    277.72672   -311.34804    125850.79   -43506.588    3390.0482   -46896.636   0.31791849 
  110200    278.73872     -574.124    126292.39   -43492.002     3402.401   -46894.404   0.29719851 
  110400    278.44389   -730.38647    126514.54    -43535.58    3398.8023   -46934.382   0.28956204 
  110600    270.57093   -552.90262       126093   -43605.547    3302.7017   -46908.248   0.31098806 
  110800    272.97129   -228.69783    125603.79   -43604.349    3332.0014   -46936.351   0.33618335 
  111000    272.73943   -331.89097     125815.7    -43605.96    3329.1713   -46935.131   0.31299996 
  111200    274.65918   -707.91728    126420.06   -43584.138    3352.6046   -46936.742   0.28489316 
  111400    271.68982   -740.19056     126471.3   -43630.015    3316.3593   -46946.375   0.28973025 
  111600    274.19369   -393.80575    125865.48   -43676.673    3346.9226   -47023.596   0.31761545 
  111800    270.67511   -179.35783    125545.88   -43708.258    3303.9733   -47012.231   0.32771435 
  112000    270.69482   -492.37237    126008.08   -43706.643    3304.2139   -47010.857    0.3093817 
  112200    266.81662   -772.86926    126497.68   -43657.688     3256.875   -46914.563   0.27939674 
  112400    268.73894   -666.11048    126260.46   -43639.765    3280.3396   -46920.105   0.29237918 
  112600    269.70389   -253.30793     125679.2   -43621.017    3292.1182   -46913.135   0.33475994 
  112800    271.14485   -278.47617    125713.37    -43638.66    3309.7072   -46948.368   0.32182451 
  113000    270.96343   -654.04684     126313.1    -43615.59    3307.4926   -46923.083   0.29095657 
  113200    275.48084   -763.21546    126494.88   -43643.313    3362.6341   -47005.947   0.28604114 
  113400     269.9826   -436.72281    125995.92   -43629.489    3295.5202   -46925.009   0.31173616 
  113600      276.498   -211.94809    125626.92   -43636.533    3375.0499   -47011.583   0.32864866 
  113800    274.02768   -436.76212    125963.99   -43620.091    3344.8962   -46964.987    0.3140584 
  114000    269.67625   -765.00555    126448.93    -43602.37    3291.7808   -46894.151   0.28405122 
  114200    271.75459   -643.17687    126322.51       -43615    3317.1499    -46932.15   0.29218886 
  114400    275.55216   -362.25473    125839.82   -43566.415    3363.5046    -46929.92   0.32980319 
  114600    273.43232   -289.53498    125757.21   -43544.361     3337.629    -46881.99   0.32778333 
  114800    278.32892   -554.94066    126169.82   -43515.409     3397.399   -46912.808   0.30510469 
  115000    277.71794   -693.62833    126402.74   -43533.928     3389.941   -46923.869   0.29574431 
  115200     277.5251   -590.16106    126134.43     -43560.1    3387.5871   -46947.687   0.30290268 
  115400    275.87655   -380.09277     125821.5   -43577.938    3367.4643   -46945.403   0.31794427 
  115600    272.15883     -370.509    125901.07   -43556.339    3322.0842   -46878.423   0.31741946 
  115800    279.71938   -563.66161    126186.22   -43572.577    3414.3714   -46986.948    0.2999029 
  116000    270.34458   -625.70913       126235   -43562.412    3299.9387    -46862.35   0.30056419 
  116200    275.81705   -465.78434     126032.2    -43577.96     3366.738   -46944.698   0.31942847 
  116400    274.29941   -403.22082    125907.67   -43624.569    3348.2131   -46972.783    0.3155111 
  116600    274.91249   -429.19455    126028.51    -43640.29    3355.6965   -46995.986    0.2998346 
  116800     276.7058   -540.27733    126210.69   -43590.528    3377.5864   -46968.115   0.29292084 
  117000     276.2665   -528.89524       126178   -43610.244    3372.2242   -46982.468   0.29707072 
  117200    275.95755   -422.79533    125976.64   -43609.375    3368.4529   -46977.827   0.30850978 
  117400    272.97864    -421.0483    125929.39   -43621.234    3332.0912   -46953.325   0.30933534 
  117600    275.40509   -509.55588    126080.85   -43595.164    3361.7094   -46956.874   0.30553679 
  117800    271.39541   -578.52957    126174.86   -43559.231    3312.7656   -46871.996   0.30786039 
  118000    276.22698   -521.16203    126073.34   -43550.061    3371.7417   -46921.803   0.30649232 
  118200    276.33514   -430.09249    125969.06   -43588.741     3373.062   -46961.803   0.31081891 
  118400    274.91724   -447.59732    126014.61   -43620.749    3355.7545   -46976.503   0.30807788 
  118600    269.70056   -559.53819    126110.21   -43644.859    3292.0776   -46936.937   0.29661589 
  118800    273.48669   -502.54047    126070.64   -43680.884    3338.2927   -47019.176   0.29948317 
  119000    268.05997   -456.32901    125914.15   -43689.644    3272.0518   -46961.696   0.31480847 
  119200    271.35538   -433.81278    125880.02   -43692.613     3312.277    -47004.89   0.30765048 
  119400    271.35097    -506.4808    126046.66   -43719.966    3312.2232   -47032.189    0.3069125 
  119600    272.26113   -578.80229    126174.81   -43663.246    3323.3329   -46986.579   0.30718811 
  119800    273.55772   -482.70166    126061.84   -43657.616    3339.1597   -46996.776    0.2949384 
  120000    267.30842   -434.24108    125889.55   -43683.968     3262.878   -46946.847   0.32088782 
  120200    268.88586   -422.80263    125929.98    -43658.35     3282.133   -46940.483   0.32225363 
  120400    269.21135    -567.0912    126146.95   -43691.069     3286.106   -46977.175   0.29280517 
  120600    274.51242   -598.48859    126159.75   -43677.184    3350.8131   -47027.997   0.29722273 
  120800    271.69233    -433.3973    125926.71   -43678.156    3316.3899   -46994.546   0.32165796 
  121000    271.53416   -386.81048    125841.96   -43667.165    3314.4593   -46981.624   0.30656527 
  121200    268.03249   -550.23903    126044.13   -43672.839    3271.7164   -46944.555   0.31622246 
  121400    271.77976   -626.14089    126188.82   -43663.437    3317.4571   -46980.894   0.31062582 
  121600    276.37171   -475.40526    126041.65   -43656.252    3373.5084    -47029.76   0.29866553 
  121800    270.06529   -384.05573    125880.81   -43655.612    3296.5296   -46952.142   0.31249852 
  122000    273.20485   -487.36977    126004.91    -43637.19    3334.8524   -46972.042   0.31972473 
  122200    275.97819   -597.34418    126218.86   -43611.213    3368.7049   -46979.918   0.29369296 
  122400    274.90403   -590.88166    126203.87   -43573.382    3355.5933   -46928.976   0.29695421 
  122600    277.28098   -433.49254    126008.24   -43499.553    3384.6073    -46884.16   0.31641037 
  122800    282.54078   -390.78564    125987.26   -43498.326    3448.8106   -46947.137   0.30996673 
  123000    277.36565   -588.48021    126256.36   -43530.259    3385.6409     -46915.9   0.30050414 
  123200    279.37458   -643.84688     126348.4     -43552.3    3410.1627   -46962.462   0.29787717 
  123400    275.66318   -478.60614    126026.95   -43630.064    3364.8597   -46994.923   0.30487141 
  123600    275.44141   -300.67274    125750.31   -43593.195    3362.1527   -46955.348   0.31907211 
  123800    269.90261   -467.29246    125991.89   -43603.372    3294.5438   -46897.916   0.31753855 
  124000      278.856   -684.04326    126360.88   -43580.249    3403.8326   -46984.082   0.29921744 
  124200    279.15393   -587.68957    126267.09     -43570.8    3407.4693    -46978.27   0.29258438 
  124400    277.63777   -343.27652    125876.95   -43593.264    3388.9624   -46982.226   0.31305422 
  124600    273.65619   -346.75096    125822.24    -43607.25    3340.3616   -46947.611   0.31794342 
  124800     272.2533   -577.10384    126195.61   -43611.295    3323.2374   -46934.533   0.29384228 
  125000    275.13625   -691.78693    126377.33   -43620.403    3358.4279   -46978.831   0.29115297 
  125200    276.08147   -465.49665    126062.31   -43611.901    3369.9656   -46981.867   0.31181518 
  125400     272.1419   -319.67039    125776.55   -43663.075    3321.8775   -46984.952   0.32019925 
  125600    275.04699   -431.02474    125976.62   -43674.353    3357.3383   -47031.691   0.30658831 
  125800    270.61402   -686.18244    126355.07   -43645.777    3303.2276   -46949.004   0.29639339 
  126000    273.92074   -643.02894    126299.61   -43633.817    3343.5908   -46977.408   0.28617874 
  126200     278.5988   -368.28971    125881.17   -43612.086    3400.6932    -47012.78   0.31116575 
  126400    265.37854   -327.15572    125770.74   -43642.224    3239.3212   -46881.545   0.33307963 
  126600    272.96756   -565.29352    126172.55   -43648.453    3331.9559   -46980.409   0.29277399 
  126800    272.58823   -682.55108    126417.19    -43627.53    3327.3257   -46954.856   0.28701571 
  127000    270.61225   -505.84045    126116.76   -43649.659     3303.206   -46952.865   0.30738502 
  127200    270.89112   -298.78386    125751.22   -43683.206    3306.6101   -46989.816   0.31813407 
  127400    273.12989   -405.55659    125900.79   -43676.465    3333.9374   -47010.402   0.31478188 
  127600    269.91988   -645.52273    126312.13   -43667.805    3294.7547    -46962.56   0.30085545 
  127800    267.82645   -656.74668    126331.74   -43668.167    3269.2013   -46937.368   0.28801476 
  128000    275.62862   -416.53876    125925.17   -43651.552    3364.4379    -47015.99   0.30972524 
  128200    270.57487   -325.69887    125729.35   -43622.408    3302.7497   -46925.158   0.32695521 
  128400    272.31031   -498.00316    126063.31   -43651.875    3323.9332   -46975.809   0.30272793 
  128600    271.30282   -678.92347    126390.73   -43665.549    3311.6354   -46977.185     0.293642 
  128800    267.99565   -583.67459     126181.3   -43719.816    3271.2668   -46991.083   0.30548071 
  129000    270.74245   -308.46798    125706.51   -43740.511    3304.7953   -47045.306   0.32693791 
  129200    266.64689   -337.43484    125675.79   -43720.599    3254.8032   -46975.402   0.32298617 
  129400    269.34223   -623.15251    126157.53   -43709.107    3287.7036   -46996.811   0.31088002 
  129600    271.50031   -721.04237    126406.36   -43690.394     3314.046    -47004.44   0.28319884 
  129800    268.10622   -530.96182    126028.35   -43702.822    3272.6163   -46975.439   0.30648626 
  130000    275.19593   -284.69795    125630.65   -43727.462    3359.1564   -47086.619   0.33413484 
  130200    267.47639   -401.93675    125842.36   -43727.601    3264.9284   -46992.529   0.31683036 
  130400    270.09018   -673.42537    126308.28   -43720.233    3296.8334   -47017.066   0.29565859 
  130600    273.30671   -634.16919    126272.65   -43678.978    3336.0957   -47015.074   0.30429357 
  130800    268.42377   -349.28729    125795.48   -43701.287    3276.4925   -46977.779   0.32032218 
  131000    271.34859     -314.368    125653.29   -43726.065    3312.1941   -47038.259   0.32434994 
  131200    270.43668   -560.17703    126101.31   -43694.353     3301.063   -46995.416   0.31578055 
  131400     265.4866   -776.83025    126430.63   -43697.877    3240.6402   -46938.517   0.28778133 
  131600    272.62508   -558.62904    126083.71   -43687.621    3327.7755   -47015.396   0.30025926 
  131800    270.84661    -247.1326    125576.12   -43669.142    3306.0668   -46975.209   0.34115319 
  132000    274.25085   -300.62041    125759.09   -43624.204    3347.6202   -46971.824    0.3203749 
  132200     266.1281   -763.90368    126449.09   -43635.643    3248.4706   -46884.114   0.29137591 
  132400    270.94997   -846.61764    126565.78   -43639.941    3307.3284   -46947.269   0.29514547 
  132600    275.26261   -353.12012    125828.75   -43608.488    3359.9703   -46968.458   0.31915325 
  132800     278.3443   -80.208467    125397.31   -43590.997    3397.5867   -46988.584   0.34407295 
  133000    276.54531    -484.8262    126047.01   -43577.892    3375.6274   -46953.519   0.31715115 
  133200    273.06362   -910.76331    126778.53   -43543.946    3333.1285   -46877.074   0.27960181 
  133400    280.94166   -683.30665    126415.33   -43525.438    3429.2911   -46954.729   0.29173128 
  133600    273.38814   -213.30974    125567.28   -43534.865    3337.0897   -46871.954   0.35045962 
  133800    275.86002   -183.07372    125582.94   -43560.664    3367.2624   -46927.926   0.32698835 
  134000    275.08704   -645.47001    126367.62   -43512.411    3357.8272   -46870.238   0.29137374 
  134200    278.47916   -834.01362       126652   -43518.447    3399.2328    -46917.68   0.29078925 
  134400    271.28772   -444.94231    126076.44   -43513.685    3311.4511   -46825.136   0.31417304 
  134600    271.71132   -208.42792    125610.79   -43538.017    3316.6217   -46854.639   0.33403159 
  134800    273.06492   -413.85582     125926.4   -43567.667    3333.1443   -46900.811   0.33222011 
  135000    276.29972    -727.2802    126419.06   -43629.904    3372.6297   -47002.534   0.28684666 
  135200     272.5942   -631.50038    126273.09   -43614.892    3327.3986   -46942.291   0.29172631 
  135400    271.24574   -372.12681    125840.61   -43633.846    3310.9386   -46944.785    0.3255421 
  135600    273.34177   -350.47236    125815.97   -43610.814    3336.5237   -46947.337   0.30997417 
  135800    270.47693   -590.18932    126182.38   -43677.862    3301.5543   -46979.416   0.29226123 
  136000    270.15908   -676.90192    126319.45   -43697.979    3297.6744   -46995.653   0.29961872 
  136200    269.48418   -488.84212    126024.39   -43695.888    3289.4363   -46985.325    0.3087859 
  136400    271.68525   -348.98001     125782.8   -43670.177    3316.3035    -46986.48   0.31686665 
  136600    275.67234   -449.01141    125978.62   -43616.618    3364.9716   -46981.589   0.32199912 
  136800    273.15667   -653.31831    126300.69   -43626.517    3334.2643   -46960.782   0.30424254 
  137000     274.3741   -585.17617     126254.6   -43632.321    3349.1248   -46981.446   0.29643802 
  137200    276.32167   -405.01906    125918.62   -43658.529    3372.8976   -47031.427   0.31790809 
  137400    272.19557   -347.17996    125807.12   -43625.018    3322.5326    -46947.55   0.32140011 
  137600     273.6374   -473.40049    126062.13   -43615.676    3340.1323   -46955.808   0.29877718 
  137800    273.41442   -651.15893    126265.29   -43580.368    3337.4104   -46917.779   0.31091833 
  138000    276.97928   -518.29795    126109.23   -43601.871    3380.9247   -46982.796   0.30763516 
  138200    272.13307   -413.94321    125839.47    -43642.52    3321.7698   -46964.289   0.32497842 
  138400    275.88669   -389.31478    125907.26   -43621.581    3367.5881   -46989.169   0.32284673 
  138600    271.06758    -631.4104    126235.42   -43635.157     3308.764   -46943.921   0.30822646 
  138800    271.40167    -614.3947    126266.04   -43570.663     3312.842   -46883.505    0.3036067 
  139000    275.00226   -442.06586    125954.06   -43582.795    3356.7923   -46939.587   0.31612653 
  139200    275.50017   -339.42495    125791.34   -43581.784      3362.87   -46944.654   0.32095606 
  139400    271.96933   -524.56757    126035.24   -43604.867    3319.7711   -46924.638   0.30945036 
  139600    274.01622   -637.28744    126335.26   -43586.815    3344.7563   -46931.572   0.29525274 
  139800    275.90205   -624.57452    126284.78   -43545.475    3367.7755    -46913.25   0.30781112 
  140000    276.49649   -436.35348    125980.11   -43529.913    3375.0315   -46904.944   0.32000558 
  140200    269.82776   -423.12469    125883.77   -43561.685    3293.6302   -46855.315   0.33105756 
  140400    274.99019   -550.32693    126132.19   -43585.687    3356.6449   -46942.332   0.31381266 
  140600    270.65467   -627.17333    126311.44   -43586.266    3303.7238    -46889.99   0.30057724 
  140800    274.54935   -539.44943    126113.86    -43581.32    3351.2638   -46932.584   0.30192719 
  141000    270.83793   -361.40442    125799.68   -43620.561    3305.9608   -46926.521   0.32833559 
  141200    269.12672   -390.56249    125860.19   -43578.847     3285.073    -46863.92   0.32715967 
  141400     274.1594   -618.53331    126252.83     -43569.5     3346.504   -46916.004     0.305649 
  141600    276.48629   -694.17866     126387.6   -43550.167     3374.907   -46925.074   0.29859284 
  141800    272.33929   -464.69196    126011.79   -43610.081     3324.287   -46934.368   0.31607989 
  142000    275.39076   -228.50777    125633.74   -43613.333    3361.5345   -46974.868   0.32753519 
  142200    277.19816   -426.57282    125941.31   -43628.328    3383.5963   -47011.924   0.31478711 
  142400    272.94324    -864.5927    126578.63   -43619.287     3331.659   -46950.946   0.28621375 
  142600    273.77926   -732.84247    126459.43   -43591.204    3341.8638   -46933.068   0.28592589 
  142800    273.93611   -225.91991    125620.47   -43620.397    3343.7784   -46964.175   0.33034459 
  143000    267.95168    -105.8553    125404.33   -43650.526      3270.73   -46921.256   0.34286492 
  143200    267.94139   -661.10698       126271    -43637.16    3270.6043   -46907.765   0.30093911 
  143400    268.75751   -965.57734    126857.68    -43606.75    3280.5663   -46887.316    0.2710918 
  143600    266.32558   -564.80723    126183.53    -43593.97    3250.8811   -46844.851   0.31602459 
  143800    271.60196   -89.501468    125351.35   -43605.143    3315.2868    -46920.43   0.35443197 
  144000    274.61778   -214.43599     125663.8   -43590.735    3352.0992   -46942.834    0.3359765 
  144200    272.60264   -825.50255    126571.69   -43563.135    3327.5016   -46890.637   0.28745021 
  144400    276.49195   -858.95811    126631.68   -43558.006    3374.9761   -46932.982     0.279728 
  144600    275.19604   -348.92777    125838.02   -43544.307    3359.1576   -46903.464   0.32352229 
  144800    277.27493   -139.91812    125505.53     -43531.7    3384.5335   -46916.234   0.34637218 
  145000    276.39752   -461.99037    126078.09    -43568.71    3373.8234   -46942.533   0.30545327 
  145200    275.86629    -770.6434    126585.31   -43590.599     3367.339   -46957.938   0.27974207 
  145400    273.70821   -613.88357    126279.43   -43589.285    3340.9966   -46930.282   0.30091009 
  145600    268.25534   -288.67445    125727.18   -43613.797    3274.4366   -46888.233   0.32921382 
  145800    270.64985   -346.52207     125758.2   -43633.928     3303.665   -46937.593   0.33498222 
  146000    268.87536   -593.69505    126237.93   -43611.925    3282.0049    -46893.93   0.30343028 
  146200    272.52893   -738.52512    126409.92   -43639.637    3326.6018   -46966.239   0.28182665 
  146400     277.6323   -469.17866    126019.98   -43598.792    3388.8957   -46987.687   0.31359953 
  146600    279.40947    -272.5192    125718.78   -43556.667    3410.5885   -46967.256   0.32261349 
  146800    274.54336   -415.99692    126001.95   -43520.944    3351.1907   -46872.135   0.30757761 
  147000    272.84291   -713.20697    126429.35   -43516.933    3330.4343   -46847.367   0.30212302 
  147200    274.60509   -652.50352    126348.99   -43495.381    3351.9443   -46847.325   0.30328612 
  147400    276.58254   -359.65872    125884.74    -43548.25    3376.0818   -46924.332   0.31265793 
  147600    273.18424   -332.78892    125744.13   -43576.515    3334.6008   -46911.116   0.33486968 
  147800    270.14842   -527.68607    126145.32   -43613.174    3297.5443   -46910.718    0.2993124 
  148000    275.08706   -710.38654    126428.39   -43579.168    3357.8274   -46936.995   0.27892873 
  148200    274.95679   -568.89179    126149.92   -43629.373    3356.2372    -46985.61   0.30602776 
  148400    274.97009   -313.43833    125736.56   -43652.101    3356.3996   -47008.501   0.31597658 
  148600     272.0541   -340.12134    125791.23   -43625.839    3320.8059   -46946.645    0.3157932 
  148800    270.97925   -598.83137    126203.65    -43635.17    3307.6857   -46942.856   0.31253376 
  149000    272.47582   -748.35473    126344.64   -43640.539    3325.9535   -46966.493   0.29560926 
  149200    272.08971   -495.36973    125994.24   -43661.179    3321.2405   -46982.419   0.30306276 
  149400    270.50589    -332.3758    125676.83   -43682.362    3301.9078    -46984.27   0.34449156 
  149600    270.43866   -401.13356    125872.15    -43663.07    3301.0871   -46964.158   0.31720186 
  149800    269.80291   -654.77115    126283.11   -43672.635    3293.3268   -46965.962    0.2842398 
  150000    269.66793   -634.52026     126284.8   -43617.182    3291.6793   -46908.861   0.30758607 
  150200    276.48901   -441.39042    125922.45   -43569.267    3374.9402   -46944.207    0.3186578 
  150400    272.55433   -346.37132    125810.84   -43572.272    3326.9119   -46899.184   0.31342524 
  150600    267.25525   -529.43582    126115.77   -43581.401    3262.2291    -46843.63   0.32289334 
  150800    274.63817    -679.6474    126365.39   -43571.113     3352.348   -46923.461   0.29410817 
  151000    277.20326   -544.39387    126168.19   -43597.401    3383.6586    -46981.06   0.29184604 
  151200    276.15122   -302.64442    125821.54   -43586.765     3370.817   -46957.582   0.32819804 
  151400    278.27389    -408.1261     125897.5   -43519.276    3396.7272   -46916.003   0.31772619 
  151600    275.27613   -626.74401    126305.34   -43500.564    3360.1352     -46860.7    0.2887307 
  151800    282.35253   -642.85806    126377.32   -43468.761    3446.5128   -46915.274   0.30288484 
  152000    279.60484   -475.23895    126009.87   -43495.188    3412.9733   -46908.161   0.31158142 
  152200    276.14765   -311.01574    125769.52   -43515.044    3370.7734   -46885.818   0.31622681 
  152400    274.07924   -507.36675    126006.95   -43549.625    3345.5256   -46895.151   0.33456507 
  152600    275.11428   -662.26722    126282.23   -43537.222    3358.1597   -46895.382   0.30142124 
  152800    274.03755   -570.85974     126165.9   -43481.679    3345.0167   -46826.696   0.30094763 
  153000    275.05233   -402.59285    125868.96    -43531.34    3357.4034   -46888.744   0.33700403 
  153200    280.81335   -377.92877    125871.34   -43479.262    3427.7249   -46906.987   0.31380031 
  153400    273.68508   -585.88828    126226.34   -43520.336    3340.7143    -46861.05   0.29528602 
  153600    273.34571   -683.62578    126359.75   -43555.238    3336.5718    -46891.81   0.30487798 
  153800    274.48144   -478.83195    126021.72   -43563.353    3350.4349   -46913.788   0.30504628 
  154000    276.28751   -285.77854    125766.45   -43596.529    3372.4806   -46969.009   0.30872338 
  154200    274.18568   -465.42672    126043.68   -43552.397    3346.8248   -46899.222   0.32210867 
  154400    275.92285    -711.7411     126472.7   -43532.386    3368.0294   -46900.415   0.28794668 
  154600     275.4179   -652.59564    126340.39   -43550.071    3361.8657   -46911.937   0.28424496 
  154800     272.9162   -296.05826    125778.86   -43584.137     3331.329   -46915.466   0.32898162 
  155000    275.73562   -267.33318    125669.77   -43561.213     3365.744   -46926.957   0.32519674 
[...]
  163000    273.68012   -426.95053    125908.32   -43627.592    3340.6537   -46968.246   0.30782597 
  163200    272.08384   -310.27292    125784.88   -43621.935    3321.1688   -46943.103   0.32987253 
  163400    271.61971   -539.02366     126148.4   -43646.875    3315.5035   -46962.379   0.32091207 
  163600    275.51444   -692.27174    126411.95   -43613.399    3363.0442   -46976.443   0.28672145 
  163800    276.29934   -544.88809    126167.21   -43673.539     3372.625   -47046.164   0.28827157 
  164000    266.99325    -318.9064    125753.11   -43670.188    3259.0309   -46929.219   0.33567955 
  164200    275.56799   -362.34218    125798.33   -43682.012    3363.6978    -47045.71    0.3105662 
  164400    271.15795   -570.55722    126264.71   -43636.547    3309.8671   -46946.414   0.28768399 
  164600     275.5179   -702.50595    126456.76   -43602.028    3363.0864   -46965.114   0.29537073 
  164800    268.62701   -465.36972    126046.84   -43647.319    3278.9734   -46926.292   0.30407017 
  165000    267.30345   -242.29752    125671.33   -43639.337    3262.8174   -46902.154   0.33495221 
  165200    275.73386   -418.24439    125967.18   -43626.369    3365.7226   -46992.092   0.32411558 
  165400    271.74899   -768.06363    126478.69   -43635.537    3317.0816   -46952.619   0.28277021 
  165600    272.61215   -675.39399    126337.17    -43594.27    3327.6176   -46921.887   0.28729728 
  165800    275.14423   -325.02949    125743.37    -43601.82    3358.5252   -46960.345   0.33509635 
  166000    275.70723   -224.21894    125657.01   -43569.904    3365.3975   -46935.301   0.32292507 
  166200    271.65168   -640.94911    126281.36   -43607.554    3315.8938   -46923.448   0.29478356 
  166400    271.53619    -856.9337    126634.74   -43596.378     3314.484   -46910.862   0.29485643 
  166600    270.60086   -519.88122    126070.92    -43599.51    3303.0669   -46902.577   0.31028802 
  166800    272.74522   -74.769746    125437.52   -43664.355    3329.2419   -46993.597   0.34014448 
  167000    267.53527   -329.39008    125780.62    -43654.08    3265.6471   -46919.727   0.33593876 
  167200    269.42126   -882.56437    126632.42   -43613.849    3288.6682   -46902.517   0.28371279 
  167400    267.37669   -862.49738    126593.46   -43636.037    3263.7115   -46899.748   0.28028176 
  167600    273.26067    -259.3511    125642.21   -43640.027    3335.5338   -46975.561   0.33973725 
  167800    268.76416   -71.475672    125333.56   -43683.635    3280.6475   -46964.282   0.34278785 
  168000    273.16769   -528.17566    126114.91    -43693.83    3334.3987   -47028.228   0.29408136 
  168200    273.54218   -923.81459    126689.91   -43675.509    3338.9699   -47014.479   0.28606998 
  168400    270.69422   -615.22748    126201.09   -43658.531    3304.2065   -46962.738    0.3045077 
  168600    273.22588   -155.63627    125513.81   -43623.344    3335.1091   -46958.453   0.33395626 
  168800    269.98853   -295.13241    125686.06   -43685.874    3295.5927   -46981.467   0.34401921 
  169000    270.47443   -663.68619    126325.88   -43673.064    3301.5237   -46974.588   0.29338571 
  169200    272.18409   -721.97649    126441.37   -43653.476    3322.3925   -46975.868   0.28296162 
  169400    272.19606   -415.53131    125948.21   -43671.599    3322.5386   -46994.137   0.31376356 
  169600    271.01298   -294.89737    125666.23    -43686.34    3308.0974   -46994.437   0.32752854 
  169800    269.88997   -416.37688    125966.21   -43682.594    3294.3895   -46976.983   0.30231873 
  170000    269.54534   -754.00894    126305.78   -43715.031    3290.1828   -47005.214   0.30303969 
  170200     268.3555   -594.79141    126166.68    -43720.32    3275.6592   -46995.979    0.3013525 
  170400    270.29958    -389.2123    125795.23   -43712.023    3299.3894   -47011.413   0.32243204 
  170600    271.29121   -324.68716    125738.27   -43687.759    3311.4937   -46999.253   0.33647751 
  170800    273.21475   -531.53613    126068.85    -43715.92    3334.9732   -47050.893   0.31209014 
  171000     269.0504   -652.55078     126239.4   -43697.621    3284.1415   -46981.763   0.29773838 
  171200    270.73069   -485.22564    126003.29   -43717.724    3304.6518   -47022.376   0.31669342 
  171400    268.87933   -345.22967    125758.51   -43722.559    3282.0532   -47004.612    0.3228796 
  171600    267.80743   -465.04153    125892.13   -43695.339    3268.9692   -46964.308   0.30733335 
  171800    268.51384   -618.66556    126182.45   -43665.582     3277.592   -46943.174   0.31498286 
  172000    269.52816   -600.92103    126191.46   -43668.286    3289.9731    -46958.26   0.31115014 
  172200    268.81696   -467.85613    125913.01   -43700.024    3281.2919   -46981.316   0.31048842 
  172400    270.58388   -346.83407    125775.89   -43675.839    3302.8597   -46978.699   0.33393594 
  172600    271.84592     -466.586    126017.52   -43642.278    3318.2647   -46960.543      0.31385 
  172800    271.52412   -650.77786    126284.43   -43646.745    3314.3367   -46961.081   0.28728777 
  173000    270.35029   -622.30093    126188.15   -43657.271    3300.0084   -46957.279   0.30842548 
  173200    270.55837   -381.74307    125857.82   -43690.668    3302.5483   -46993.216   0.32035993 
  173400    271.37531   -339.20823    125760.75   -43693.368    3312.5202   -47005.888   0.30842795 
  173600    271.59578   -510.06469     126087.5   -43649.171    3315.2114   -46964.382   0.31269974 
  173800    275.28059   -672.90182    126384.82   -43638.304    3360.1898   -46998.494    0.2942756 
  174000    270.50858   -554.18208    126200.39   -43607.874    3301.9406   -46909.815   0.29401649 
  174200    277.40034   -368.69511    125812.89   -43599.227    3386.0642   -46985.291    0.3367584 
  174400    270.70496   -399.12806    125821.29   -43589.076    3304.3377   -46893.413   0.32969202 
  174600    273.39977   -629.01431    126171.95   -43590.389    3337.2316   -46927.621   0.29928045 
  174800    274.82016   -643.94809    126261.56   -43572.878    3354.5696   -46927.447   0.31483437 
  175000    271.16069   -431.32891    125943.32   -43603.122    3309.9005   -46913.023   0.32166592 
  175200    276.70516    -282.9312    125745.35   -43607.038    3377.5786   -46984.617    0.3102093 
  175400    274.46798   -472.86711    125991.59   -43621.092    3350.2706   -46971.362   0.31700912 
  175600    276.30853   -637.17843    126280.77   -43626.103    3372.7371    -46998.84   0.30462363 
  175800    267.78863   -543.56092     126157.3   -43600.748    3268.7398   -46869.488   0.30332354 
  176000    275.38225   -334.43241    125825.52   -43610.554    3361.4307   -46971.985   0.33268534 
  176200    277.96711   -359.68522    125805.28   -43562.906    3392.9825   -46955.889   0.33237418 
  176400    275.99932   -563.13529    126175.71   -43573.874    3368.9628   -46942.837   0.29529459 
  176600    277.20309   -675.81659    126354.39   -43560.774    3383.6565   -46944.431   0.29964007 
  176800    276.39843   -482.63152    126005.88   -43582.928    3373.8345   -46956.762   0.31703907 
  177000    275.85618   -306.75499    125676.19   -43577.535    3367.2156   -46944.751   0.32154281 
  177200    275.63806   -442.75415    125941.08   -43608.631    3364.5532   -46973.185   0.31891228 
  177400    269.61737   -728.75243    126417.08   -43660.797    3291.0621    -46951.86   0.29793223 
  177600    270.94288   -636.66126    126322.58   -43654.865    3307.2418   -46962.107   0.28680736 
  177800    274.56665   -329.73013    125796.27   -43625.126    3351.4751   -46976.601   0.32762258 
  178000    277.22689   -253.72129    125684.74   -43605.257    3383.9471   -46989.204   0.33067258 
  178200    277.82235   -521.76967    126222.67   -43609.076    3391.2155   -47000.292   0.28355728 
  178400    274.49785    -766.0045    126583.41   -43615.182    3350.6353   -46965.817    0.2863752 
  178600     274.4932   -552.64107    126142.77   -43605.583    3350.5785   -46956.162   0.30793302 
  178800    275.59899   -176.61065    125578.24   -43596.541    3364.0762   -46960.617   0.31969793 
  179000     277.0959   -305.71539    125819.83   -43565.187    3382.3481   -46947.535   0.32444798 
  179200    271.69317   -797.47076    126576.85   -43586.393    3316.4002   -46902.793   0.29116365 
  179400    272.75877   -820.94811    126641.51    -43572.15    3329.4074   -46901.557   0.27617596 
  179600     269.2089   -368.45974    125856.19   -43582.996    3286.0761   -46869.072   0.32680296 
  179800    274.46177   -86.832994    125476.22    -43600.73    3350.1948   -46950.925    0.3450251 
  180000    271.42929   -531.24814     126095.4   -43584.639    3313.1791   -46897.818   0.30155627 
  180200    275.84719   -852.14168    126676.86   -43531.169    3367.1059   -46898.275   0.28110905 
  180400     273.3613   -638.99174    126298.05   -43511.269     3336.762   -46848.031   0.30446046 
  180600    278.40069   -231.34108    125628.04   -43560.313     3398.275   -46958.588   0.32362416 
  180800    272.46919   -299.39029    125694.41   -43553.754    3325.8726   -46879.626    0.3342628 
  181000    273.78311   -627.95711    126274.91   -43583.202    3341.9108   -46925.113   0.30870143 
  181200    268.99708   -750.53374    126426.88   -43565.236    3283.4905   -46848.727   0.28805424 
  181400    277.37873   -495.51777    125970.25   -43605.696    3385.8005   -46991.497   0.31923055 
  181600    272.34232   -294.83377    125654.28   -43623.552    3324.3239   -46947.876   0.33820235 
  181800    274.10093   -440.63928    125942.67   -43617.154    3345.7903   -46962.945   0.30025033 
  182000    270.05222   -665.68525    126371.73   -43591.666      3296.37   -46888.036   0.29292608 
  182200    270.70716   -636.46553    126323.78   -43603.084    3304.3646   -46907.449   0.30384634 
  182400    273.81522   -443.24807    125917.33   -43612.368    3342.3028   -46954.671   0.30582953 
  182600    277.00869   -295.52277    125762.34   -43594.153    3381.2836   -46975.436   0.31839632 
  182800    280.04328   -501.94766    126110.86   -43567.074    3418.3251   -46985.399   0.31199741 
  183000    277.61881   -680.20446    126383.93   -43538.541     3388.731   -46927.272   0.28573707 
  183200     275.3722   -526.92176     126161.2   -43530.829    3361.3079   -46892.137   0.30861737 
  183400    276.66689   -358.98566    125846.89   -43540.622    3377.1115   -46917.734   0.33400888 
  183600    277.21301   -429.51265    125908.91   -43575.403    3383.7776   -46959.181   0.31012359 
  183800    272.74642   -563.60297       126185   -43581.933    3329.2566   -46911.189   0.29892803 
  184000    274.64126   -594.46826    126231.05   -43608.182    3352.3858   -46960.568   0.30222673 
  184200    273.30571   -453.84808    125994.26   -43648.036    3336.0835    -46984.12   0.30417171 
  184400    272.12518   -357.78141    125816.73   -43635.042    3321.6735   -46956.715   0.32350623 
  184600    272.72094    -484.4421    125985.38   -43661.446    3328.9456   -46990.391    0.3198201 
  184800    274.15283   -621.07013    126234.08   -43642.082    3346.4239   -46988.505   0.29531439 
  185000    265.02702   -605.98565    126191.39   -43640.918    3235.0303   -46875.948   0.29954006 
  185200    270.98703   -425.43232    125935.47   -43684.482    3307.7807   -46992.263   0.31825663 
  185400    271.37437   -387.74653    125869.83   -43665.815    3312.5088   -46978.324   0.31713136 
  185600    269.73637   -525.58571    126099.21   -43672.491    3292.5147   -46965.005   0.30035495 
  185800    269.58948   -652.60019    126286.66   -43629.186    3290.7217   -46919.908   0.29804414 
  186000     270.0731   -560.76981    126151.36   -43626.302    3296.6249   -46922.927   0.29938045 
  186200     277.3231   -405.61693    125944.13   -43608.956    3385.1214   -46994.077   0.30817103 
  186400    273.87316   -402.94482    125999.89    -43576.28      3343.01    -46919.29     0.313014 
  186600    271.57173   -563.80629    126224.38   -43586.586    3314.9178   -46901.504   0.30909636 
  186800      277.765   -573.66886    126236.34    -43611.45    3390.5155   -47001.966   0.29020266 
  187000    274.91449   -475.20125    125982.55   -43577.039    3355.7209    -46932.76   0.32192705 
  187200    273.94877   -382.06945    125842.47   -43608.701    3343.9329   -46952.633   0.31944651 
  187400    276.33253   -477.51812    126043.19   -43591.482    3373.0301   -46964.512     0.294162 
  187600    274.17137   -674.32599    126258.87   -43627.831    3346.6501   -46974.481   0.29717687 
  187800    274.36991   -557.69893    126133.24   -43628.138    3349.0736   -46977.211   0.30652413 
  188000    269.39675   -411.99553    125872.74   -43602.982    3288.3692   -46891.351   0.31486529 
  188200    273.62536   -424.56542    125895.54   -43578.145    3339.9853    -46918.13   0.32492893 
  188400    276.00425   -553.66776    126197.15   -43565.579     3369.023   -46934.602    0.3052931 
  188600    276.56892   -665.60838    126328.65   -43572.607    3375.9156   -46948.522   0.28897249 
  188800    274.23465   -494.04138    126067.28   -43583.568    3347.4226    -46930.99   0.31395472 
  189000    276.47249   -321.94294    125789.71   -43585.069    3374.7386   -46959.807   0.32547303 
  189200     272.6022   -390.67999    125970.86   -43586.748    3327.4962   -46914.244   0.29894924 
  189400    273.80658    -671.6014     126392.4   -43573.624    3342.1973   -46915.822   0.28765976 
  189600    269.58177   -625.79248    126370.41   -43567.364    3290.6276   -46857.991   0.29438107 
  189800    271.34558   -424.21886    125953.58   -43610.212    3312.1573   -46922.369   0.30658491 
  190000    271.71282   -340.12698    125777.04   -43633.882      3316.64   -46950.522   0.33436116 
  190200    274.94361   -540.95994    126117.57   -43614.199    3356.0764   -46970.275   0.30690959 
  190400     273.6495   -731.32542    126466.09   -43615.273      3340.28   -46955.553   0.28217507 
  190600    274.33946   -576.24822    126267.49   -43571.576    3348.7019   -46920.278   0.29719022 
  190800    272.57387   -319.60015    125833.19   -43570.101    3327.1504   -46897.252   0.31898152 
  191000    272.22218   -359.93169     125874.2   -43609.904    3322.8575   -46932.762   0.30686335 
  191200    272.54345   -635.72785    126300.93   -43615.077     3326.779   -46941.856   0.29779285 
  191400    272.90134   -686.93435    126378.08   -43622.065    3331.1476   -46953.213   0.29069164 
  191600    268.47702   -438.00763    125936.94   -43573.895    3277.1425   -46851.037   0.30957028 
  191800    277.24188   -244.60206    125694.08   -43610.185      3384.13   -46994.315   0.32108131 
  192000    269.11936   -510.17425     126080.6   -43620.889    3284.9831   -46905.872   0.31222091 
  192200     276.0857   -744.80078     126463.3   -43584.157    3370.0172   -46954.174   0.27999142 
  192400    272.72349   -611.56174    126234.97   -43587.182    3328.9767   -46916.159    0.3082714 
  192600    276.33829   -303.20226     125761.3   -43628.259    3373.1004   -47001.359    0.3242927 
  192800    276.37183   -311.44382    125778.32   -43605.811    3373.5098   -46979.321   0.30861085 
  193000    270.50781   -610.15853    126250.21   -43593.396    3301.9312   -46895.327   0.30258669 
  193200    278.03827   -691.55021     126431.1   -43564.077    3393.8511   -46957.928   0.29511955 
  193400    272.34358   -475.01412    126044.84    -43552.75    3324.3394   -46877.089   0.30175074 
  193600    273.81525   -285.56173    125702.12   -43577.786    3342.3032   -46920.089   0.33914928 
  193800    269.92298   -452.25556    125957.23   -43598.535    3294.7925   -46893.328   0.31876054 
  194000    276.69715    -686.1252    126406.21   -43629.157    3377.4809   -47006.638   0.27962164 
  194200    274.02336   -636.70961    126336.75   -43604.308    3344.8434   -46949.152   0.30281131 
  194400    275.12897   -399.03751     125871.4    -43602.88     3358.339   -46961.219   0.32629937 
  194600     270.4698   -240.39771    125751.94   -43605.317    3301.4672   -46906.784   0.31338767 
  194800    270.03307   -556.20802    126201.53   -43608.702    3296.1363   -46904.838    0.3074405 
  195000    273.96213   -776.60414    126496.22   -43585.856    3344.0961   -46929.952   0.28909275 
  195200    273.60129   -504.67134       126156   -43560.787    3339.6915   -46900.478   0.29045266 
  195400    281.26142   -270.14003    125734.17   -43585.079    3433.1943   -47018.273    0.3331104 
  195600    272.32751    -385.6135    125900.13   -43590.617    3324.1432    -46914.76   0.31939357 
  195800     271.8013   -704.28408     126353.2   -43621.904    3317.7201   -46939.624   0.28809874 
  196000     275.0592    -673.1569    126345.09   -43604.855    3357.4873   -46962.342   0.30443206 
  196200    280.44297   -386.60162     125927.9   -43573.343    3423.2039   -46996.547   0.31683392 
  196400    278.33548    -284.4931    125812.66   -43597.597     3397.479   -46995.076   0.29249293 
  196600    273.32759   -548.67021    126145.22   -43639.793    3336.3505   -46976.143   0.29976521 
  196800    274.52548   -686.44253    126347.53   -43625.838    3350.9726    -46976.81   0.29513096 
  197000    267.27393   -559.18951    126113.06   -43634.938     3262.457   -46897.395   0.29894586 
  197200    272.07086   -339.67025    125805.59    -43672.28    3321.0104   -46993.291   0.32849098 
  197400    274.43337   -393.94493    125878.55   -43668.026    3349.8482   -47017.874    0.3213487 
  197600    270.90202    -562.2631    126166.03   -43602.674    3306.7431   -46909.417   0.29001613 
  197800    277.63716   -612.89498    126240.37   -43570.093     3388.955   -46959.048   0.30488946 
  198000    275.43526   -487.03687    126047.75   -43594.745    3362.0777   -46956.823   0.31885052 
  198200    276.25085   -364.66462    125900.62   -43618.092    3372.0331   -46990.125      0.30325 
  198400    277.56125   -436.79725     126014.3   -43560.754    3388.0284   -46948.783   0.30736918 
  198600    275.26227   -508.94618    126187.05   -43536.965    3359.9661   -46896.931   0.31376044 
  198800    276.27892   -569.03449    126183.11   -43570.757    3372.3757   -46943.133   0.29719541 
  199000     278.3777   -486.50381    126032.07    -43562.37    3397.9943   -46960.364   0.31348835 
  199200    274.72294    -420.3411    125957.02   -43571.602    3353.3827   -46924.984   0.32964374 
  199400      276.087   -450.40253    126059.52   -43577.238     3370.033   -46947.271   0.29642813 
  199600    273.71099   -564.28544    126175.58   -43599.938    3341.0305   -46940.969   0.30439808 
  199800     278.2181   -515.59993    126111.17   -43580.785    3396.0462   -46976.831   0.31512665 
  200000    275.17901    -440.7994    125982.35   -43585.348    3358.9497   -46944.298   0.29973019 
Loop time of 256.097 on 6 procs for 200000 steps with 4096 atoms

Performance: 337.372 ns/day, 0.071 hours/ns, 780.955 timesteps/s
98.8% CPU use with 6 MPI tasks x no OpenMP threads

MPI task timing breakdown:
Section |  min time  |  avg time  |  max time  |%varavg| %total
---------------------------------------------------------------
Pair    | 179.65     | 183.97     | 192.57     |  35.4 | 71.84
Neigh   | 11.846     | 12.161     | 12.794     |  12.0 |  4.75
Comm    | 38.335     | 47.493     | 52.106     |  75.6 | 18.54
Output  | 3.5638     | 3.5656     | 3.5731     |   0.2 |  1.39
Modify  | 6.742      | 6.8237     | 6.9215     |   2.2 |  2.66
Other   |            | 2.083      |            |       |  0.81

Nlocal:        682.667 ave         706 max         645 min
Histogram: 1 0 0 0 1 1 0 0 2 1
Nghost:        1586.50 ave        1602 max        1575 min
Histogram: 1 2 0 0 0 1 0 1 0 1
Neighs:        0.00000 ave           0 max           0 min
Histogram: 6 0 0 0 0 0 0 0 0 0
FullNghs:      21518.0 ave       22214 max       20265 min
Histogram: 1 0 0 0 1 0 1 0 2 1

Total # of neighbors = 129108
Ave neighs/atom = 31.520508
Neighbor list builds = 13123
Dangerous builds = 0

Total wall time: 0:06:20
