
# Create simulation box of size 50 x 50 x 50 Angstrom
#
lattice	            sc 1
Lattice spacing in x,y,z = 1.0000000 1.0000000 1.0000000
region 	            all block 0 50 0 50 0 50 units box
create_box          1 all
Created orthogonal box = (0.0000000 0.0000000 0.0000000) to (50.000000 50.000000 50.000000)
  1 by 2 by 3 MPI processor grid

# fill box with 4169 randomly distributed atoms
#
create_atoms        1 random 4169 63782 all
Created 4169 atoms
  create_atoms CPU = 0.001 seconds
mass                1 18.015

# Define potential
#
pair_style          sw
pair_coeff          * * mW_real.sw mW
Reading sw potential file mW_real.sw with DATE: 2019-02-27

# Run minimization
#
minimize            1.0e-8 1.0e-8 10000 1000
WARNING: Using 'neigh_modify every 1 delay 0 check yes' setting during minimization (../min.cpp:187)
Neighbor list info ...
  update every 1 steps, delay 0 steps, check yes
  max neighbors/atom: 2000, page size: 100000
  master list distance cutoff = 6.3065
  ghost atom cutoff = 6.3065
  binsize = 3.15325, bins = 16 16 16
  1 neighbor lists, perpetual/occasional/extra = 1 0 0
  (1) pair sw, perpetual
      attributes: full, newton on
      pair build: full/bin/atomonly
      stencil: full/bin/3d
      bin: standard
Per MPI rank memory allocation (min/avg/max) = 4.260 | 4.262 | 4.266 Mbytes
Step Temp E_pair E_mol TotEng Press 
       0            0    4900160.9            0    4900160.9    3723672.9 
     710            0   -47132.294            0   -47132.294   -728.65721 
Loop time of 1.92653 on 6 procs for 710 steps with 4169 atoms

99.5% CPU use with 6 MPI tasks x no OpenMP threads

Minimization stats:
  Stopping criterion = max force evaluations
  Energy initial, next-to-last, final = 
      4900160.86673089  -47132.1393790795  -47132.2936809525
  Force two-norm initial, final = 1.2605426e+08 2.7266892
  Force max component initial, final = 68346525.0 1.1006115
  Final line search alpha, max atom move = 0.10767057 0.11850347
  Iterations, force evaluations = 710 1001

MPI task timing breakdown:
Section |  min time  |  avg time  |  max time  |%varavg| %total
---------------------------------------------------------------
Pair    | 1.5454     | 1.6494     | 1.7149     |   4.3 | 85.61
Neigh   | 0.043457   | 0.044627   | 0.045591   |   0.3 |  2.32
Comm    | 0.14278    | 0.20848    | 0.31225    |  12.0 | 10.82
Output  | 0          | 0          | 0          |   0.0 |  0.00
Modify  | 0          | 0          | 0          |   0.0 |  0.00
Other   |            | 0.02407    |            |       |  1.25

Nlocal:        694.833 ave         704 max         679 min
Histogram: 1 0 0 0 0 1 1 0 2 1
Nghost:        1599.83 ave        1625 max        1573 min
Histogram: 1 0 0 1 0 2 0 1 0 1
Neighs:        0.00000 ave           0 max           0 min
Histogram: 6 0 0 0 0 0 0 0 0 0
FullNghs:      22862.3 ave       23497 max       21934 min
Histogram: 1 0 0 0 1 0 1 2 0 1

Total # of neighbors = 137174
Ave neighs/atom = 32.903334
Neighbor list builds = 42
Dangerous builds = 0

# Add velocity/set timestep
#
velocity            all create ${TEMP} 120598 rot yes dist gaussian
velocity            all create 274 120598 rot yes dist gaussian
timestep            5.0

# Define output
#
compute	            1 all msd
thermo	            100
thermo_style        custom step temp press vol etotal ke pe c_1[4] density

# Neighbor lists
#
neigh_modify        delay 0 every 1 check yes

# Set fixes
#
fix                 1 all momentum 10 linear 1 1 1 rescale
fix                 2 all nve
fix                 3 all temp/csvr ${TEMP} ${TEMP} 500.0 928347
fix                 3 all temp/csvr 274 ${TEMP} 500.0 928347
fix                 3 all temp/csvr 274 274 500.0 928347
fix                 4 all press/berendsen iso ${PRES} ${PRES} 1000.0 modulus 20000
fix                 4 all press/berendsen iso -500 ${PRES} 1000.0 modulus 20000
fix                 4 all press/berendsen iso -500 -500 1000.0 modulus 20000

# Run 0.5 ns equilibration
#
dump                1 all custom 1000 eq.${NAME}.dump id type x y z vx vy vz
dump                1 all custom 1000 eq.liquid_274K_500atm_mW.dump id type x y z vx vy vz
run                 100000
Per MPI rank memory allocation (min/avg/max) = 3.510 | 3.513 | 3.516 Mbytes
Step Temp Press Volume TotEng KinEng PotEng c_1[4] Density 
     710          274    516.24551       125000   -43728.113    3404.1805   -47132.294 1.9461438e-33   0.99771203 
     800    182.97927   -203.59092    126662.04   -42379.214    2273.3374   -44652.552   0.42378305   0.98462019 
     900     212.1159   -516.57985    127055.33   -41480.229    2635.3314    -44115.56   0.85163716   0.98157237 
    1000    231.77497    -644.4787    127075.41   -40866.132     2879.576   -43745.708    1.3568352   0.98141725 
    1100    243.84614   -505.40258     127169.7   -40416.102    3029.5484   -43445.651    1.9278416   0.98068958 
    1200    256.99539   -604.47818    127234.88   -40126.977    3192.9149   -43319.892    2.5508417    0.9801872 
    1300    252.20961   -686.58902    127387.17   -40069.651    3133.4564   -43203.107    3.2841675   0.97901539 
    1400    257.62165   -630.37201    127245.08   -39918.086    3200.6956   -43118.781    3.9742793   0.98010866 
    1500    255.73248   -501.04946    127051.49   -39861.517    3177.2245   -43038.741    4.7728356   0.98160203 
    1600     257.4343   -657.60686     126761.4   -39680.137    3198.3679   -42878.505    5.6127477   0.98384843 
    1700    268.70326   -379.42582    126730.52   -39516.866    3338.3737    -42855.24    6.4086796   0.98408812 
    1800    262.99272   -439.74411    126878.04   -39491.582    3267.4259   -42759.008    7.3458473   0.98294394 
    1900    261.64593   -733.34932    126501.37   -39485.197    3250.6933   -42735.891    8.2447238   0.98587075 
    2000    266.94551   -580.58008    126496.65   -39362.237    3316.5354   -42678.772    9.3293317   0.98590753 
    2100    266.97811   -588.03267    126160.71   -39255.389    3316.9404   -42572.329     10.45643   0.98853286 
    2200    271.06994   -362.32533    125901.39    -39228.06    3367.7773   -42595.837    11.816139   0.99056894 
    2300    273.09886     -531.661     125883.1   -39188.176    3392.9847   -42581.161    13.200879   0.99071281 
    2400    275.08162   -519.13205    125763.27   -39142.504    3417.6185   -42560.123    14.560557   0.99165681 
    2500     274.6776   -236.67996    125867.49   -39140.434    3412.5989   -42553.033    15.715504   0.99083568 
    2600    278.16597   -501.89134    125995.66   -39017.091    3455.9386   -42473.029    16.813276   0.98982779 
    2700    278.12218   -443.18031    125809.31   -38939.879    3455.3945   -42395.274    18.238639   0.99129389 
    2800    280.15687    -465.7582    125858.97   -38947.543    3480.6736   -42428.216    19.561902   0.99090281 
    2900    275.37351   -534.86063    125841.15   -38950.207     3421.245   -42371.452    21.077683   0.99104309 
    3000    272.47434   -466.40069    126152.23   -38984.795    3385.2256    -42370.02    22.534377   0.98859928 
    3100    281.83642   -475.25291    126025.07   -39013.199    3501.5403    -42514.74    23.994501   0.98959678 
    3200    274.88929   -376.65178    125959.75   -38974.091     3415.229    -42389.32    25.393212   0.99010998 
    3300    278.01211    -504.9538    125919.02   -39065.287     3454.027   -42519.314    27.004596   0.99043023 
    3400     276.3142   -616.91853    125704.56   -39012.122    3432.9322   -42445.054    28.341604   0.99211995 
    3500    275.65521    -338.0435    125832.75   -39050.614    3424.7448   -42475.359    29.963342   0.99110925 
    3600    272.51414   -470.12375    125799.43   -39119.538    3385.7201   -42505.258    31.501474   0.99137178 
    3700    271.34168   -540.48185     125676.8   -39179.491    3371.1535   -42550.644     32.64645    0.9923391 
    3800     264.4937    -426.3498    125566.56   -39199.724     3286.074   -42485.798    33.683047   0.99321029 
    3900    273.64959   -571.46517     125612.5   -39169.445    3399.8269   -42569.272    34.559717   0.99284707 
    4000    272.88166    -859.3522    125533.65   -39149.852    3390.2861   -42540.138    35.807501   0.99347074 
    4100    268.96051   -490.25736    125526.16   -39167.354    3341.5697   -42508.924    37.376701   0.99352996 
    4200    271.13106   -425.39992    125435.93   -39091.089    3368.5366   -42459.626    38.758614   0.99424464 
    4300     276.8165   -478.59659    125564.22   -39105.068    3439.1727   -42544.241    40.130067   0.99322885 
    4400     275.0122   -563.30667    125396.46   -39104.626     3416.756   -42521.382    41.600193   0.99455758 
    4500    275.35897   -456.88733    125609.05   -39117.171    3421.0644   -42538.235     43.19766   0.99287433 
    4600    273.23575   -419.79531    125885.31   -39149.092    3394.6854   -42543.777    44.683298   0.99069542 
    4700    270.10435   -528.67864    125816.04    -39206.43    3355.7808   -42562.211    45.850973   0.99124088 
    4800    272.77771   -585.09408    126072.36   -39107.761    3388.9947   -42496.756    47.175586   0.98922556 
    4900    271.14703   -546.97256    125804.06   -39102.406    3368.7351   -42471.141     47.98291   0.99133526 
    5000     276.0632    -431.3222    126269.12   -38992.929    3429.8137   -42422.742    49.211822   0.98768413 
    5100    274.66225   -304.45569    126234.91    -38931.38    3412.4082   -42343.789    50.500529   0.98795179 
    5200    274.96807   -465.02487    126155.92   -38997.691    3416.2078   -42413.899    51.490468   0.98857038 
    5300    272.88487   -643.39268    126039.44   -39090.168    3390.3261   -42480.494    52.583434   0.98948396 
    5400    274.42568   -491.74747    125968.85   -39076.229    3409.4691   -42485.698    53.815987   0.99003848 
    5500    276.74879   -426.10832    125974.54   -39112.515    3438.3314   -42550.847    55.369454   0.98999373 
    5600    270.00579   -500.56472    126072.19   -39128.711    3354.5563   -42483.267    57.096062   0.98922692 
    5700    273.92336   -690.56232    126117.39   -39123.584    3403.2282   -42526.813    58.684664   0.98887237 
    5800    273.20416   -513.30078    126190.21   -39144.158     3394.293   -42538.451    60.251315   0.98830173 
    5900    275.56219   -562.74236    126400.75   -39125.213    3423.5891   -42548.802    61.560523   0.98665558 
    6000     273.9256   -450.81403     126211.6   -39216.017    3403.2561   -42619.273    62.759184   0.98813426 
    6100    271.95432   -445.75675    126088.35   -39169.608    3378.7649   -42548.373      64.1691    0.9891001 
    6200    268.71367   -839.09236    126077.23   -39183.772     3338.503   -42522.275    65.436469   0.98918737 
    6300     276.6869   -536.80523    125948.05    -39215.53    3437.5626   -42653.092    66.232172   0.99020194 
    6400    275.17675   -453.55466    125910.29   -39201.472    3418.8005   -42620.273    67.634851   0.99049893 
    6500    276.37485   -485.14805    125956.47   -39095.817    3433.6857   -42529.503    68.977239   0.99013576 
    6600     269.6827   -481.77646    125973.84    -39084.43    3350.5423   -42434.972    70.044576    0.9899992 
    6700    266.83482   -621.35817    125979.27   -39155.288    3315.1602   -42470.448    70.938964   0.98995652 
    6800    270.64744   -640.70502    125957.99   -39178.055    3362.5282   -42540.583    71.523382   0.99012378 
    6900    270.23752   -578.12404    125610.08   -39073.715    3357.4354   -42431.151    72.327788   0.99286621 
    7000    278.55518   -377.54475    125593.88   -38994.617    3460.7741   -42455.391    73.285656   0.99299428 
    7100    276.15519   -418.80138    125690.34   -39009.284    3430.9566   -42440.241    74.735246   0.99223218 
    7200    274.41207   -583.26839    125691.92    -39061.21       3409.3    -42470.51    76.030901   0.99221974 
    7300    270.05257   -568.06305    125601.12    -39139.06    3355.1375   -42494.198    77.457921   0.99293706 
    7400    272.33845   -514.23305    125540.24   -39167.962    3383.5373     -42551.5    78.534351   0.99341855 
    7500    276.05908   -574.22405    125523.48   -39180.239    3429.7625   -42610.001    79.609447   0.99355118 
    7600    268.12875   -461.79638    125579.11    -39230.98    3331.2359   -42562.216    81.197556   0.99311103 
    7700    267.23913   -394.85213    125458.37   -39251.129    3320.1832   -42571.312     82.05739   0.99406681 
    7800     270.2827   -452.36847    125353.99   -39128.669    3357.9966   -42486.666    83.028869   0.99489456 
    7900    269.81526   -617.67955    125556.55   -39080.974    3352.1892   -42433.163    84.322112   0.99328952 
    8000    268.06068   -427.13282    125470.96   -39187.549    3330.3903   -42517.939    85.666894    0.9939671 
    8100    272.75429   -412.93266    125706.77   -39172.596    3388.7037     -42561.3    86.740437   0.99210252 
    8200    269.15634   -589.72669    125577.14   -39226.079    3344.0028   -42570.082    87.936116   0.99312667 
    8300     264.7049   -334.59011    125582.98   -39256.323    3288.6979   -42545.021    89.044234   0.99308045 
    8400    267.32941   -242.90724    126042.89   -39195.458    3321.3049   -42516.763    90.470297   0.98945686 
    8500    272.98531   -412.61589     125820.8   -39109.821    3391.5739   -42501.395    91.461734   0.99120342 
    8600    269.93444   -675.16299    125599.88   -39093.718    3353.6699   -42447.388    92.440978   0.99294685 
    8700    274.13182    -475.9517    125465.88   -39043.455    3405.8182   -42449.273    93.675181   0.99400728 
    8800    271.23587   -186.67325    125727.64   -39102.849    3369.8389   -42472.688    95.209309   0.99193783 
    8900    269.90524   -522.74528    125675.19   -39137.095    3353.3071   -42490.402    96.332623   0.99235182 
    9000    278.92386    -470.6184    125621.31   -39164.139    3465.3546   -42629.493    97.660505   0.99277745 
    9100    274.34338   -509.70811    125796.34   -39189.815    3408.4466   -42598.261    99.100961    0.9913961 
    9200    269.15716   -617.07171    125756.13   -39271.177     3344.013    -42615.19    100.65051   0.99171313 
    9300    270.86012    -695.0028    125825.82   -39117.725    3365.1706   -42482.896     101.9787   0.99116388 
    9400    274.15016    -488.8399    125796.82   -39166.577    3406.0461   -42572.623    103.32573   0.99139237 
    9500     275.7166   -482.14516    125726.23   -39135.269    3425.5076   -42560.777    104.70428   0.99194898 
    9600    270.94889   -266.13066    125702.18   -39108.978    3366.2734   -42475.251    105.68997   0.99213875 
    9700    278.02122   -461.03576     125871.7   -39046.672    3454.1402   -42500.813    106.80178    0.9908026 
    9800    272.04717   -399.76136    125842.72    -39009.25    3379.9184   -42389.168    108.02255   0.99103077 
    9900    270.57272   -643.86905    125944.25   -39082.169    3361.5999   -42443.769    109.79472   0.99023178 
   10000    273.33985   -489.65196    126033.77   -39156.632    3395.9788   -42552.611    111.28445   0.98952846 
   10100    268.42898   -610.24446    125849.01   -39171.357     3334.966   -42506.323    112.55556   0.99098118 
   10200    270.98365   -594.33599    125768.19   -39140.486    3366.7053   -42507.192    113.55232   0.99161801 
   10300    266.68625     -618.103    125831.75   -39206.326    3313.3144   -42519.641    115.00366   0.99111716 
   10400     277.5413    -556.8603    125886.47   -39136.947    3448.1776   -42585.124    116.36661   0.99068629 
   10500    272.24985   -551.93321    126110.91   -39141.715    3382.4365   -42524.151    117.91858    0.9889232 
   10600    279.03217   -618.99307    126120.78   -39087.469    3466.7002   -42554.169    119.40078   0.98884577 
   10700    273.70517   -603.44584    125833.78   -38997.117    3400.5174   -42397.634    120.42345   0.99110112 
   10800    276.05595   -436.73324     125920.1   -39000.525    3429.7236   -42430.249    121.43275   0.99042174 
   10900    277.30273   -636.14519    126047.74   -39010.812    3445.2136   -42456.026    123.20916   0.98941882 
   11000    276.08102   -345.19699    125863.51   -39017.306    3430.0351   -42447.341    123.92317   0.99086701 
   11100    278.81748   -438.97482    125870.15   -39015.778    3464.0329   -42479.811    125.14925   0.99081475 
   11200    271.74986   -787.75218    125855.24   -39100.689    3376.2247   -42476.914    126.46968   0.99093217 
   11300    277.01987   -489.18685    125943.69   -39035.819    3441.6993   -42477.518    127.73394   0.99023623 
   11400    271.90105   -586.16462    125826.01   -39093.741    3378.1031   -42471.844    129.06425   0.99116235 
   11500    274.07574   -586.87948    125674.29   -39053.376    3405.1215   -42458.497    130.51556   0.99235889 
   11600     275.5634   -417.48578    125805.09   -39087.171    3423.6041   -42510.775    132.28186   0.99132713 
   11700    274.39231    -664.7922    125743.79   -39071.889    3409.0546   -42480.943    133.62928   0.99181047 
   11800    280.04684   -716.37113    125767.93   -38976.749    3479.3065   -42456.056    135.23555   0.99162007 
   11900    273.05354   -338.71265    125419.92   -39056.501    3392.4217   -42448.923    136.34272   0.99437158 
   12000    275.62192   -367.05111    125352.61     -39097.7    3424.3313   -42522.032    137.88084   0.99490552 
   12100    269.94307   -558.21977    125364.01   -39111.501    3353.7771   -42465.278    139.47982   0.99481501 
   12200    277.93423   -247.58931     125398.7   -39024.214    3453.0594   -42477.274    140.90702   0.99453982 
   12300    276.44462   -454.56292    125804.44   -39032.467    3434.5524   -42467.019    142.41268   0.99133228 
   12400    273.33839   -425.45195    125869.64   -39042.097    3395.9607   -42438.058    143.57996   0.99081876 
   12500     275.1556    -437.2799    125915.39   -39023.142    3418.5376   -42441.679    145.45225   0.99045878 
   12600     276.4967   -618.79941    125894.52   -39107.787    3435.1995   -42542.987    146.29077   0.99062299 
   12700    274.31605   -360.39017    125999.86   -39005.605    3408.1071   -42413.712    147.54287    0.9897948 
   12800    279.12499   -434.89744    125949.19   -38949.041    3467.8535   -42416.894    149.04597   0.99019301 
   12900    278.68605   -856.88674    125790.51   -39002.881       3462.4   -42465.281    150.16797   0.99144205 
   13000    273.28188    -219.3892    125755.52   -39085.763    3395.2585   -42481.021    151.54086   0.99171796 
   13100    277.97136   -512.71778    125761.73   -38991.134    3453.5207   -42444.654    152.59523   0.99166897 
   13200    277.02701   -391.18831    125645.92   -38991.286    3441.7881   -42433.074    154.27152     0.992583 
   13300    280.91973   -421.26338    125765.69   -38922.984    3490.1513   -42413.136    155.91608    0.9916377 
   13400    274.73609   -474.85905    125752.63   -38938.084    3413.3257    -42351.41    157.48828   0.99174075 
   13500    276.78058   -344.68447     125890.7   -39039.793    3438.7264    -42478.52    159.41608     0.990653 
   13600    269.33378   -502.31974    125627.23   -39118.074    3346.2072   -42464.281     160.4591   0.99273066 
   13700    274.85723   -591.78629     125871.2   -39152.818    3414.8307   -42567.648    162.05236   0.99080647 
   13800    276.04153   -347.58016    125993.61   -39108.321    3429.5445   -42537.865    163.93804    0.9898439 
   13900    274.14799   -491.11681    125889.82   -39066.309    3406.0191   -42472.328    165.20612   0.99065994 
   14000    270.45617   -344.65131    125767.56   -39049.035    3360.1519   -42409.187    165.99384   0.99162298 
   14100    274.41224   -437.04001    125543.77   -39034.317    3409.3021   -42443.619    167.00072   0.99339063 
   14200    271.91728   -399.33148    126022.91   -39074.348    3378.3047   -42452.653    168.75724   0.98961376 
   14300     275.3283   -490.26882    126403.67   -39062.367    3420.6833    -42483.05     170.8918   0.98663278 
   14400    268.19438   -568.27392    125919.23   -39174.173    3332.0514   -42506.224    171.61257   0.99042854 
   14500    270.67225   -543.95324     126048.1   -39151.252    3362.8364   -42514.089    173.28881   0.98941594 
   14600    277.27653   -658.77157    125957.76    -39088.13    3444.8881   -42533.019    174.45748   0.99012563 
   14700    276.91688   -662.62247    125763.39   -39114.419    3440.4199   -42554.839    175.65254   0.99165583 
   14800    269.13616   -465.33846    125816.06   -39124.147     3343.752   -42467.899     177.1494    0.9912407 
   14900    268.02425    -540.3823    125784.87   -39225.889    3329.9376   -42555.826    178.58692   0.99148654 
   15000    269.81384   -429.84621    125626.64   -39244.514    3352.1715   -42596.686    179.86147   0.99273535 
   15100    262.16514   -556.11315    125481.87    -39258.69     3257.144   -42515.834    180.67834   0.99388066 
   15200    269.07719   -430.97529    125532.04   -39235.741    3343.0194   -42578.761    181.99219   0.99348346 
   15300    270.51673    -431.3354    125468.24   -39190.174    3360.9043   -42551.078    183.46114   0.99398863 
   15400    269.53083    -335.6912    125610.42   -39167.696    3348.6554   -42516.352    184.84264   0.99286355 
   15500     271.9601   -380.62923    125861.48   -39107.206    3378.8368   -42486.043    186.32432   0.99088301 
   15600    274.84765   -400.63028    125923.78   -39167.838    3414.7117    -42582.55    187.89679   0.99039277 
   15700    270.10273   -444.49564    126083.23   -39077.403    3355.7607   -42433.164    189.39997   0.98914031 
   15800    270.21109    -401.5979    126028.74   -39124.555     3357.107   -42481.662    190.88941     0.989568 
   15900    265.17876   -621.70193    125933.42   -39181.291    3294.5852   -42475.876    192.19437   0.99031699 
   16000    271.50738   -495.15261    125911.25    -39168.97    3373.2122   -42542.183    193.51475   0.99049137 
   16100    271.40717   -583.85601    125852.39    -39075.95    3371.9671   -42447.917     194.9948    0.9909546 
   16200    274.37246    -535.2264    125971.14   -39064.927     3408.808   -42473.735    196.39074   0.99002043 
   16300    273.49885   -696.53682    125818.31    -39115.12    3397.9542   -42513.074    197.35789     0.991223 
   16400    282.01078   -603.41275    125810.07    -39115.62    3503.7066   -42619.327    199.05949    0.9912879 
   16500    279.76225   -467.15183    125842.47   -39037.797    3475.7708   -42513.568    200.51192   0.99103271 
   16600    273.48049   -292.93338    126004.11   -39028.437     3397.726   -42426.163    202.35928   0.98976137 
   16700    272.36008   -452.01668    126283.77   -39042.988     3383.806   -42426.794    203.72232   0.98756956 
   16800    273.68161   -305.57687    126220.22   -39024.949    3400.2248   -42425.174    205.29253   0.98806673 
   16900    276.07888   -287.78677    126383.28   -38979.761    3430.0085    -42409.77    206.11435   0.98679197 
   17000    273.71764    -438.2975    126495.51   -38992.141    3400.6725   -42392.814    207.74234   0.98591642 
   17100    274.21164   -622.89459    126163.99   -38996.228    3406.8099   -42403.038    209.28212   0.98850709 
   17200    277.79777   -459.33976    126192.72   -38903.522    3451.3641   -42354.886     210.7157    0.9882821 
   17300     274.9256   -381.97247    126042.02   -38917.708    3415.6802   -42333.388    212.33817   0.98946371 
   17400    279.40292   -247.50069    125982.85   -38986.205    3471.3064   -42457.511    213.74191   0.98992842 
   17500    271.97786   -260.75948    126379.65   -38996.138    3379.0573   -42375.195    215.34522    0.9868203 
   17600    273.92319   -509.66424    126389.47    -39046.26    3403.2262   -42449.486    216.98511   0.98674363 
   17700    279.53032   -597.23528    126422.51   -39028.021    3472.8892    -42500.91    218.33522   0.98648577 
   17800     275.7469   -514.95336    126482.25   -39075.385    3425.8839   -42501.269    219.64521   0.98601981 
   17900    274.51594   -413.51551    126280.87   -39044.679    3410.5904   -42455.269    220.86071   0.98759222 
   18000    278.33678   -609.58175    126269.51   -38990.928    3458.0607   -42448.989    221.79147   0.98768103 
   18100    278.01272   -532.56714    126043.03   -38929.105    3454.0345    -42383.14    223.73621   0.98945576 
   18200    272.87639    -353.7292    126120.16   -39053.922    3390.2207   -42444.142    225.43357   0.98885067 
   18300    274.10562   -836.43075    126291.01   -39013.164    3405.4927   -42418.657    227.45923   0.98751292 
   18400    276.29518   -688.62908    125975.04    -39013.07    3432.6958   -42445.766    228.84662   0.98998983 
   18500    280.66768   -557.92224    126123.28   -38978.421    3487.0198   -42465.441    230.76096   0.98882618 
   18600    274.84817   -821.50109    126078.32    -39035.39    3414.7181   -42450.109      232.505   0.98917884 
   18700    270.09901   -678.84018    125728.81   -39085.381    3355.7145   -42441.095    233.27093   0.99192859 
   18800    278.50377   -836.05279    125500.37    -39051.56    3460.1354   -42511.695    233.89016   0.99373419 
   18900    271.76557   -624.30636    125311.36   -39014.632    3376.4198   -42391.052    234.93284     0.995233 
   19000    277.10112   -545.27903    125646.41   -39072.586    3442.7088   -42515.295    236.29331   0.99257914 
   19100    277.14317   -427.94161    125616.37    -39047.73    3443.2312   -42490.961    237.75177   0.99281649 
   19200     272.0646    -588.7848    125989.83   -39097.119     3380.135   -42477.254    240.06436   0.98987354 
   19300    274.10019   -554.74605    125659.54   -39043.909    3405.4252   -42449.335    240.61918    0.9924754 
   19400     281.6164   -674.36099    125736.64    -39015.65    3498.8067   -42514.457    241.93574   0.99186686 
   19500    278.71713   -641.77897     125758.1   -39023.162    3462.7862   -42485.948    243.22827   0.99169756 
   19600    275.16622   -397.02504     125814.4     -39043.6    3418.6696   -42462.269    244.17279   0.99125383 
   19700     277.1794   -594.62694    125830.35   -39095.963    3443.6814   -42539.644    245.71801   0.99112813 
   19800    274.53544   -494.60057    125636.12   -39056.724    3410.8327   -42467.557    246.99858    0.9926604 
   19900    268.77625   -605.11675    125592.52   -39069.407    3339.2805   -42408.688     247.5876   0.99300502 
   20000    280.13034   -522.32728    125409.73   -39071.222    3480.3439   -42551.566    247.89609   0.99445239 
   20100    272.12701   -288.02011    125501.68   -39088.641    3380.9105   -42469.551    248.80442    0.9937238 
   20200    273.28637   -643.66057    125315.29   -39111.954    3395.3143   -42507.268    250.54518   0.99520181 
   20300     269.7606   -535.21537    125499.23   -39090.236    3351.5101   -42441.746    252.37352   0.99374317 
   20400    272.60449   -408.80305    125530.09   -39148.771    3386.8426   -42535.614    254.50797   0.99349884 
   20500    271.52425   -412.46351    125514.79    -39159.73    3373.4217   -42533.152    256.00427      0.99362 
   20600    269.75388   -398.20534    125735.17   -39155.041    3351.4266   -42506.468    257.68259   0.99187844 
   20700    268.22033   -611.60976    125752.44   -39214.627    3332.3737   -42547.001    259.39448    0.9917422 
   20800    273.64079   -490.34822    125606.84   -39108.384    3399.7177   -42508.102    260.12864   0.99289178 
   20900    275.79722   -462.92706    125835.58   -39092.646    3426.5092   -42519.155    261.80772     0.991087 
   21000    271.28894   -585.25293     125655.9   -39129.953    3370.4982   -42500.451    261.71491   0.99250418 
   21100    266.99854   -557.67586    125565.49   -39274.136    3317.1942    -42591.33    262.16687   0.99321881 
   21200     266.8129   -548.01299    125528.61   -39280.661    3314.8878   -42595.549    262.99839   0.99351059 
   21300    275.93264   -577.05246    125500.02   -39214.657    3428.1916   -42642.849    264.35827    0.9937369 
   21400    266.65015   -466.72396    125369.55   -39208.767    3312.8658   -42521.632    265.65824   0.99477112 
   21500    267.95686   -239.47104    125339.96   -39162.827    3329.1004   -42491.928    267.51848   0.99500593 
   21600    265.71599    -439.8905    125420.18   -39185.705    3301.2597   -42486.965    268.91808    0.9943695 
   21700    276.29798   -506.38195    125621.41     -39102.3    3432.7306    -42535.03    270.60666   0.99277664 
   21800    270.33421   -514.41987    125585.49   -39032.469    3358.6366   -42391.106    271.48041   0.99306063 
   21900    267.64505   -614.19836    125550.55   -39031.312    3325.2265   -42356.539    272.62085   0.99333697 
   22000    278.37272   -493.21955     125475.5   -39043.299    3458.5072   -42501.806    274.02689   0.99393112 
   22100    270.70435   -474.73275    125667.43   -39105.373    3363.2353   -42468.608    275.71206   0.99241311 
   22200    273.19561   -590.51692    125817.48   -39096.589    3394.1867   -42490.775    276.97997   0.99122958 
   22300    272.28943   -448.82038    125862.18   -39043.382    3382.9283    -42426.31    278.63135   0.99087752 
   22400    272.43506   -690.56766    125681.29   -39031.829    3384.7376   -42416.566    279.82727   0.99230368 
   22500     280.8317   -466.36128    125825.55   -39001.184    3489.0577   -42490.241    280.99044   0.99116594 
   22600    273.08024   -577.74846    125653.65   -38984.102    3392.7533   -42376.855    281.85233    0.9925219 
   22700    279.13124   -410.78339    125904.87   -38969.024    3467.9311   -42436.955    283.62485   0.99054158 
   22800    273.12474   -312.16121    126288.07   -39006.244    3393.3062    -42399.55    285.13408   0.98753591 
   22900    275.01602   -668.95468    126103.56   -38992.404    3416.8036   -42409.208    286.46002   0.98898083 
   23000    278.79045   -357.64363     125875.8   -38989.502    3463.6972   -42453.199    287.44224   0.99077026 
   23100    277.25842   -591.94579    125753.59   -38995.883    3444.6631   -42440.546    288.67479   0.99173314 
   23200     271.8593   -542.61228    125719.12   -39091.279    3377.5844   -42468.864    289.64199   0.99200507 
   23300    275.90147   -627.08164    126096.52   -39089.599    3427.8044   -42517.403    292.13005   0.98903603 
   23400    271.26775    -491.3993    125981.97   -39090.936     3370.235   -42461.171    293.48064   0.98993533 
   23500    278.02059    -459.0839    126134.11   -39052.165    3454.1324   -42506.297    294.97828   0.98874132 
   23600    268.70202   -257.44607     125963.8   -39056.528    3338.3583   -42394.886    295.72207   0.99007811 
   23700    274.86957   -491.47109    125925.85    -39050.55     3414.984   -42465.534    297.13611   0.99037648 
   23800    271.48934   -629.97471    125862.41   -39135.448    3372.9879   -42508.436    298.66657   0.99087574 
   23900    269.07389    -698.3504    126075.45   -39157.416    3342.9784   -42500.395    300.18851    0.9892013 
   24000    273.55467   -434.91843    125584.28   -39168.067    3398.6477   -42566.715    301.45401   0.99307017 
   24100     270.2091   -441.51649    125601.03   -39099.934    3357.0823   -42457.016    303.60565   0.99293773 
   24200    269.15423   -362.32645    125844.07   -39133.966    3343.9765   -42477.943    305.33562   0.99102012 
   24300    273.99948   -543.29055    125791.11    -39158.87     3404.174   -42563.044    306.48947    0.9914373 
   24400    272.97991    -558.0077     125985.2   -39134.085    3391.5068   -42525.592    308.24478   0.98990992 
   24500    275.56491   -569.24528    126034.15   -39180.662    3423.6229   -42604.285    309.89986   0.98952545 
   24600    273.84339   -558.44042    125868.66   -39135.888    3402.2348   -42538.123     311.2423   0.99082648 
   24700    272.73605    -522.5837    126065.57   -39129.694    3388.4772   -42518.172    312.90963   0.98927883 
   24800    275.84306   -560.16847    125854.48   -39148.378    3427.0787   -42575.456    314.07871   0.99093814 
   24900    270.75854    -333.5595     125679.5   -39136.892    3363.9086   -42500.801    315.38713   0.99231782 
   25000    278.39136   -600.43988    125791.95   -39076.713    3458.7389   -42535.452    317.10042   0.99143068 
   25100    279.13911   -580.60476    125829.33   -39056.106    3468.0289   -42524.135    318.26689   0.99113622 
   25200    268.75699   -674.36836    125788.22   -39074.404    3339.0412   -42413.445    319.48088   0.99146012 
   25300    268.05124   -385.96569     126015.4   -39084.007     3330.273    -42414.28    320.48808   0.98967273 
   25400     276.9026    -622.5516    126090.23    -39065.75    3440.2424   -42505.992    322.12158   0.98908535 
   25500    275.17245   -844.33252    125886.33   -39061.672     3418.747   -42480.419    323.00696   0.99068739 
   25600    275.26143   -384.91656    125737.45   -39066.023    3419.8525   -42485.875    324.02098   0.99186041 
   25700    274.92392   -358.33527    125895.42   -39057.719    3415.6593   -42473.379    325.78015   0.99061589 
   25800    269.99609   -548.84585    125716.23   -39106.994    3354.4359    -42461.43     326.7485    0.9920279 
   25900    267.89756   -556.31516    125639.98   -39105.673    3328.3636   -42434.036    328.22166   0.99262988 
   26000     276.3697   -553.07608    125639.57   -39041.736    3433.6217   -42475.357    329.14671   0.99263316 
   26100    275.54352   -493.66806    125722.58   -39000.584    3423.3572   -42423.941     330.8806    0.9919778 
   26200    274.94028   -597.21588    125644.75   -39026.248    3415.8625    -42442.11    331.90228   0.99259226 
   26300    278.84987   -607.91898    125514.29   -39044.791    3464.4354   -42509.226    332.38027   0.99362391 
   26400    274.69443   -726.59586    125514.54   -39054.474    3412.8081   -42467.282    333.99684   0.99362195 
   26500    273.92993   -573.97995    125565.89   -39052.137    3403.3099   -42455.447    336.32682   0.99321565 
   26600    269.15003    -449.4954    125528.04   -39082.184    3343.9243   -42426.108    337.89977   0.99351507 
   26700     266.8325   -306.30047    125401.58   -39125.485    3315.1313   -42440.617    339.27915   0.99451703 
   26800    275.05099   -472.54812    125513.48   -39126.415     3417.238   -42543.653    340.83453   0.99363034 
   26900    274.35499   -434.83155    125592.85   -39090.784    3408.5909   -42499.375    342.34937   0.99300241 
   27000    269.99788   -644.92103    125820.84   -39075.618     3354.458   -42430.076    343.35271    0.9912031 
   27100    271.59246   -666.70432    125936.24   -39098.114    3374.2692   -42472.383    344.83255   0.99029478 
   27200    270.10254   -340.76427    125864.03   -39133.145    3355.7584   -42488.904     345.7692   0.99086298 
   27300    274.02032   -509.66476    125881.94   -39135.562    3404.4329   -42539.995    347.40599   0.99072195 
   27400    273.32401   -576.06048    125840.57   -39188.097     3395.782   -42583.879    348.64493   0.99104765 
   27500    280.57888   -488.27995    125780.78   -39106.468    3485.9166   -42592.384    350.06962   0.99151876 
   27600    274.20145   -440.85909    125930.61   -39091.016    3406.6833     -42497.7    352.97572    0.9903391 
   27700    272.55884   -630.14531    125885.82   -39091.252    3386.2755   -42477.527     354.1761    0.9906914 
   27800    270.85823   -475.67331    125631.31   -39104.707    3365.1471   -42469.854    354.62244   0.99269844 
   27900    275.26463   -617.59721    125651.78   -38968.037    3419.8923    -42387.93    355.66377   0.99253668 
   28000    271.12118   -590.46203    125514.16   -39077.637     3368.414   -42446.051    356.86161   0.99362498 
   28100    272.85227   -339.77059    125629.12   -39072.044    3389.9211   -42461.965     359.0525   0.99271576 
   28200    277.18039   -461.10292    125817.99   -39011.281    3443.6937   -42454.975    361.11904   0.99122551 
   28300    273.33056   -387.64569    125642.71   -39066.121    3395.8634   -42461.985    362.18239   0.99260832 
   28400    274.02014   -526.34802    125634.51   -39097.927    3404.4306   -42502.357    363.25789   0.99267313 
   28500    272.04122   -413.97606    125686.84   -39170.882    3379.8445   -42550.726    364.07016   0.99225981 
   28600    269.12159   -689.39648    125714.01   -39205.071     3343.571   -42548.642    364.88975    0.9920454 
   28700    270.33862    -521.8689     125596.4   -39122.143    3358.6914   -42480.834    365.64557   0.99297438 
   28800    278.63211   -579.18259    125541.87   -39101.091    3461.7298   -42562.821    367.43458   0.99340564 
   28900    271.52787   -651.29715    125626.13   -39099.875    3373.4666   -42473.342    368.62807   0.99273938 
   29000     276.9856   -394.23942    125553.38   -39051.281    3441.2736   -42492.555    369.80813   0.99331458 
   29100    273.56648   -408.44567    125668.45   -39140.929    3398.7944   -42539.723    372.45676   0.99240502 
   29200    276.69483   -595.14994     125804.2    -39010.89    3437.6611   -42448.551    374.09106   0.99133415 
   29300    276.32355   -370.36167    125750.26   -39029.618    3433.0483   -42462.666    375.64369   0.99175944 
   29400    273.49255   -474.55486    125655.75   -39133.192    3397.8759   -42531.068    376.97379   0.99250533 
   29500    268.89674    -667.1283    125693.85   -39210.149    3340.7775   -42550.926    377.95655   0.99220453 
   29600     266.9579   -323.91816    125699.15   -39202.886    3316.6893   -42519.575     379.6274   0.99216268 
   29700    274.81247   -467.55939    125821.11   -39116.311    3414.2747   -42530.586    381.01383   0.99120093 
   29800    272.73095   -404.70597    125844.19   -39163.899    3388.4138   -42552.313    381.95053   0.99101914 
   29900    273.51716   -895.91827    125547.14   -39192.477    3398.1817   -42590.658     382.7061   0.99336398 
   30000    277.28191   -556.90009    125291.53   -39174.278    3444.9549   -42619.233    384.01897   0.99539053 
   30100    268.68798   -496.28352    125638.81   -39163.541    3338.1839   -42501.725    386.44329   0.99263915 
   30200     271.3728   -572.24541    125642.47   -39142.058    3371.5401   -42513.598    388.13622   0.99261023 
   30300    271.48371   -604.48406    125796.89   -39163.941     3372.918   -42536.859    390.43486   0.99139178 
   30400    277.27758    -532.3336    125565.75   -39111.253    3444.9011   -42556.154    392.43269   0.99321669 
   30500    273.50251   -499.17511    125912.94   -39093.715    3397.9996   -42491.715    394.31986   0.99047809 
   30600    274.81545   -314.66554    125937.08   -39093.094    3414.3116   -42507.406    395.47316   0.99028818 
   30700    276.81717   -608.78087    126025.73   -39103.609     3439.181    -42542.79    398.04405   0.98959158 
   30800    273.36195   -434.86814    126101.65   -39093.331    3396.2534   -42489.585    399.59174   0.98899583 
   30900    275.74652   -446.61488    126327.16   -39023.231    3425.8793    -42449.11    402.58841   0.98723032 
   31000     268.1809   -388.40498     126256.9   -39112.191    3331.8839   -42444.075    403.91286   0.98777967 
   31100     267.4128   -346.98166    126269.99    -39193.36     3322.341   -42515.701    405.05986   0.98767731 
   31200    270.94139   -531.64087    126186.91   -39174.505    3366.1802   -42540.686    406.23143    0.9883276 
   31300    269.75946   -445.03572    126032.41   -39221.503    3351.4959   -42572.999    406.91013   0.98953913 
   31400    274.83414   -624.96266    126091.57   -39106.544    3414.5439   -42521.088    407.54375   0.98907487 
   31500    271.90558   -440.12695     125962.1   -39109.976    3378.1593   -42488.135    408.00934   0.99009146 
   31600    271.64089   -465.31074    126019.45   -39078.337    3374.8708   -42453.208    409.80351   0.98964088 
   31700    272.71047   -650.03219    126018.32   -39067.811    3388.1593   -42455.971    411.89084   0.98964977 
   31800     275.7263   -530.02115    125876.12   -39088.278     3425.628   -42513.906    412.42601   0.99076777 
   31900    272.59875   -435.83754    125811.12   -39019.879    3386.7714   -42406.651    413.30602   0.99127964 
   32000    276.35844    -435.1257    125830.53   -39000.217    3433.4818   -42433.699    413.85723   0.99112674 
   32100    272.55507    -583.4075    125891.35   -39019.849    3386.2287   -42406.077    415.19285   0.99064789 
   32200    272.90583   -544.85662    125827.47   -39045.801    3390.5865   -42436.387    416.38165   0.99115081 
   32300    273.36352   -577.14778    125874.31   -39032.617    3396.2729    -42428.89    418.08517   0.99078205 
   32400    280.06939   -458.22756    125926.69   -38984.408    3479.5867   -42463.995    419.32276   0.99036989 
   32500    277.63072   -547.02829    126077.69   -39029.686    3449.2886   -42478.975    421.49207   0.98918374 
   32600    275.24025    -739.7054    125945.71   -39063.299    3419.5893   -42482.889    422.69695   0.99022031 
   32700    270.11171   -460.80249    125719.85   -39069.857    3355.8722   -42425.729    423.99458   0.99199932 
   32800     275.6727   -562.72872    125561.51   -39143.512    3424.9621   -42568.474    425.03102   0.99325028 
   32900    272.07296   -392.98394     125538.5   -39161.491    3380.2389   -42541.729    425.72684    0.9934323 
   33000    270.15809   -487.61421     125456.6   -39199.716    3356.4485   -42556.164    426.79204   0.99408086 
   33100    270.29771   -561.36989    125587.59    -39208.34    3358.1831   -42566.523    428.56053   0.99304399 
   33200    274.91176    -712.4124    125799.21   -39150.306    3415.5082   -42565.814    431.19328   0.99137347 
   33300    270.33351   -286.71788    125765.28   -39161.624     3358.628   -42520.252     433.0053   0.99164096 
   33400    273.51836   -406.64726    125763.56   -39115.371    3398.1966   -42513.567    434.62863   0.99165453 
   33500    267.76161   -419.89691     125912.3   -39184.502    3326.6746   -42511.176    436.64788   0.99048309 
   33600    270.12259   -573.64045     126032.8   -39147.262    3356.0075    -42503.27    437.92186    0.9895361 
   33700     271.0708   -410.62019     126185.9   -39130.119    3367.7881   -42497.907    440.55375   0.98833549 
   33800    273.80655    -543.2325    125900.99   -39131.724    3401.7771   -42533.501    441.27893   0.99057205 
   33900    278.72501   -563.08881    125793.91   -39090.071     3462.884   -42552.955    442.65224   0.99141523 
   34000    272.63659   -455.54385    125824.74     -39119.2    3387.2414   -42506.442      444.802   0.99117232 
   34100     277.2636   -512.32905    125704.27    -39122.52    3444.7275   -42567.247    447.12961   0.99212224 
   34200    274.23364   -449.36556    125870.69   -39131.108    3407.0832   -42538.191    449.28011   0.99081055 
   34300     273.6805   -624.99391    125611.97   -39138.768     3400.211   -42538.979    449.65517   0.99285125 
   34400    268.50881   -604.28135    125695.11   -39175.492    3335.9579    -42511.45    451.55664   0.99219455 
   34500    277.06294   -442.95795    125650.29   -39119.363    3442.2345   -42561.598     453.2502   0.99254845 
   34600     274.1208   -377.35476    125806.63   -39115.502    3405.6812   -42521.183    455.13899   0.99131501 
   34700    268.53109   -658.28138    125766.19   -39144.565    3336.2347   -42480.799    456.47876   0.99163382 
   34800    273.90798   -465.95136    125767.65   -39174.948    3403.0372   -42577.985    458.31194   0.99162229 
   34900     271.4601   -575.07716    125812.31    -39220.52    3372.6247   -42593.144    459.31426    0.9912703 
   35000    273.07966   -474.84271    126066.21   -39208.753    3392.7462   -42601.499    460.12182   0.98927382 
   35100     271.9448   -608.13119    126073.84   -39286.226    3378.6466   -42664.872    461.39329   0.98921399 
   35200    273.49707    -404.7787    126077.61   -39219.144    3397.9321   -42617.076    461.72143   0.98918441 
   35300    273.73668   -589.12131    126253.06    -39204.68     3400.909   -42605.589    463.90213   0.98780973 
   35400    269.05974   -491.34423    126152.86   -39235.816    3342.8026   -42578.619    465.22309   0.98859433 
   35500     274.5027   -434.26745    126145.63   -39197.146     3410.426   -42607.572    467.07057   0.98865104 
   35600    273.27576   -538.49016    125952.13   -39120.058    3395.1824    -42515.24    466.37327   0.99016989 
   35700    274.47475   -702.86476    125868.72   -39146.687    3410.0787   -42556.765    466.83014   0.99082599 
   35800    269.68121   -362.01313    125850.56   -39126.351    3350.5237   -42476.875    467.92424   0.99096897 
   35900    269.83505   -248.87176    125903.72   -39121.476     3352.435   -42473.911    470.22149   0.99055058 
   36000    276.06609   -436.87987    126101.24   -39024.456    3429.8497   -42454.306     473.2453   0.98899901 
   36100    278.14249   -503.48062    126168.27   -38998.681    3455.6468   -42454.327    475.04179   0.98847363 
   36200    276.45748   -547.74197    126241.54   -39043.542    3434.7122   -42478.254    476.50501   0.98789991 
   36300    273.65355   -622.30907    126119.76   -39097.917    3399.8761   -42497.793    476.51687   0.98885377 
   36400    269.73804   -325.48402    125849.43    -39150.85    3351.2298    -42502.08    477.84068   0.99097793 
   36500    279.77853   -588.29187    125892.76   -39066.367     3475.973    -42542.34    479.00938   0.99063681 
   36600    270.75587    -440.7249    125931.36   -39141.738    3363.8754   -42505.613    479.79029   0.99033319 
   36700    267.34327   -776.72284    125900.72   -39207.324    3321.4771   -42528.802    480.62348   0.99057422 
   36800    267.09083   -554.15235    125812.52    -39127.54    3318.3408   -42445.881    481.67639   0.99126862 
   36900    276.64648   -713.74229    125711.93   -39121.548    3437.0604   -42558.609    483.34267   0.99206182 
   37000    270.68203   -624.03197    125708.85    -39154.02     3362.958   -42516.978    485.11024   0.99208612 
   37100    272.23254   -581.27274     125758.4   -39102.401    3382.2215   -42484.623     488.2365   0.99169519 
   37200    271.14773   -296.99997    125748.66   -39051.408    3368.7438   -42420.152    488.93163     0.991772 
   37300     271.0113   -497.72387    125950.35    -39131.75    3367.0488   -42498.799    491.47469    0.9901839 
   37400    269.32006   -600.49553    125661.73   -39167.969    3346.0368   -42514.006     493.0868   0.99245808 
   37500    274.05469   -544.63024    125680.65   -39138.856      3404.86   -42543.716    494.21071   0.99230871 
   37600    272.83787   -408.85166    125878.77   -39156.503    3389.7421   -42546.245    494.84502   0.99074691 
   37700    271.70344   -407.12914    125828.36   -39116.051    3375.6479   -42491.699    497.43339    0.9911438 
   37800    275.51781   -440.06368    125659.73   -39174.923    3423.0378   -42597.961    499.08035   0.99247389 
   37900    266.00931   -302.11243    125594.44   -39206.613     3304.904   -42511.517     499.6171   0.99298986 
   38000    275.68919   -769.55338    125671.07   -39149.292     3425.167   -42574.459    500.98607   0.99238435 
   38100    274.75675    -405.7263    125734.56   -39156.447    3413.5823   -42570.029    502.28968   0.99188326 
   38200    274.73615   -619.59117    125598.05   -39109.245    3413.3264   -42522.571    503.19048   0.99296132 
   38300    276.52171   -444.62978    125590.54   -39104.993    3435.5103   -42540.503    504.02762   0.99302065 
   38400    278.81882    -437.5729     125704.6   -39043.794    3464.0495   -42507.844    505.08925   0.99211968 
   38500    273.39486   -611.71466    125948.98   -39135.182    3396.6621   -42531.844    506.71153   0.99019463 
   38600    271.39085   -552.51906    125846.94   -39153.945    3371.7643   -42525.709    507.91457   0.99099752 
   38700    275.88869    -595.4392     125916.7   -39050.912    3427.6455   -42478.558    509.12532   0.99044848 
   38800    272.57115   -434.79304    125743.84   -39088.362    3386.4285    -42474.79    510.15465   0.99181004 
   38900    280.40626   -450.82293    125730.17   -39072.561    3483.7719   -42556.333    511.13804   0.99191788 
   39000    277.77829   -516.48616    125758.58    -39081.13     3451.122   -42532.252     513.0985    0.9916938 
   39100    273.65017   -418.85063    125752.89   -39154.638    3399.8342   -42554.473    513.54089   0.99173866 
   39200    270.42126   -529.01018    125910.73   -39136.429    3359.7181   -42496.147    514.91091   0.99049547 
   39300    274.18606   -516.79819    125896.85   -39158.055    3406.4921   -42564.547    515.25121   0.99060464 
   39400    272.02637   -610.01139    125991.41   -39147.348    3379.6601   -42527.008    517.07326   0.98986114 
   39500    273.19196   -543.32213    125790.99     -39094.9    3394.1414   -42489.041    517.63788   0.99143831 
   39600    275.49668   -618.33453    125806.21     -39061.1    3422.7752   -42483.875     519.0853   0.99131836 
   39700    277.19124   -563.35825    125892.55   -39129.463    3443.8285   -42573.291    521.00022   0.99063846 
   39800    275.60413   -692.00327    125839.58    -39086.12    3424.1102   -42510.231    522.08844   0.99105544 
   39900    267.69465   -360.85445    125929.64   -39152.446    3325.8426   -42478.289    523.53428   0.99034673 
   40000    275.95106   -491.80189    125782.88   -39129.428    3428.4204   -42557.848    525.23018   0.99150218 
   40100    276.42658   -380.71738    125728.22   -39118.971    3434.3283   -42553.299    526.31956   0.99193329 
   40200      275.223    -438.1435    125577.97    -39078.29    3419.3751   -42497.665      527.689   0.99312011 
   40300    274.24688   -392.23004    125519.05   -39102.978    3407.2477   -42510.226    528.49995   0.99358627 
   40400    276.61124   -564.60093    125607.19   -39044.593    3436.6225   -42481.215    530.37441   0.99288905 
   40500    280.38274   -449.36996    125907.08   -38927.253    3483.4797   -42410.733    533.99529   0.99052417 
   40600    275.58603   -602.64426    125787.04   -39035.101    3423.8853   -42458.987    535.54813    0.9914694 
   40700    273.46939   -720.22029    125551.11   -39028.673    3397.5882   -42426.261    536.14654   0.99333257 
   40800    276.64008   -313.00456     125407.7   -39092.142    3436.9809   -42529.123    537.23367   0.99446846 
   40900    268.54431   -625.90983    125652.54   -39189.952    3336.3989   -42526.351    539.34043   0.99253068 
   41000    275.68546   -397.44537    125652.55   -39121.907    3425.1207   -42547.028    539.93663    0.9925306 
   41100    274.03075    -397.1078     125536.2   -39084.117    3404.5624    -42488.68    541.81148   0.99345054 
   41200    278.44664   -414.61275    125822.44   -39074.671    3459.4256   -42534.097    544.57201   0.99119045 
   41300    271.24848   -545.63314    126003.28   -39131.395    3369.9956    -42501.39    546.63738    0.9897679 
   41400    269.62923   -656.46126    125875.77   -39269.458    3349.8779   -42619.336    547.76194   0.99077053 
   41500    270.60275    -483.0974    125925.68   -39219.008     3361.973   -42580.981    549.06126   0.99037782 
   41600    270.42955   -427.51108    125806.17   -39202.525    3359.8211   -42562.346    549.57809   0.99131866 
   41700    272.07361   -497.06733    125923.49   -39155.587     3380.247   -42535.834    550.55902   0.99039503 
   41800    269.89623    -524.7434    126063.42   -39158.976    3353.1951   -42512.171    552.08834   0.98929575 
   41900    270.43271   -338.49284    125968.59   -39116.607    3359.8604   -42476.468    552.78265   0.99004046 
   42000    272.93011   -429.88907    125830.11   -39078.317    3390.8881   -42469.205    552.76429   0.99113003 
   42100    277.63042   -498.40567    125755.99   -39129.648    3449.2849   -42578.932    553.99944    0.9917142 
   42200    277.89469   -544.82234       125656   -39060.236    3452.5682   -42512.804    554.22669   0.99250337 
   42300    273.05249   -439.56529    125662.13   -38994.626    3392.4086   -42387.035    555.36673   0.99245499 
   42400    272.51177   -463.67539    125679.49   -38993.054    3385.6906   -42378.745    557.78927   0.99231791 
   42500    271.69306   -363.92795    125584.99   -38999.443     3375.519   -42374.962    557.89106   0.99306457 
   42600     277.0001   -422.90681    125760.36   -38951.641    3441.4537   -42393.095     560.5346   0.99167977 
   42700    277.57906   -764.11583    125458.07   -39060.108    3448.6467   -42508.755     560.8302   0.99406924 
   42800    274.05642   -616.18868    125569.29   -39053.304    3404.8815   -42458.185     562.1993   0.99318871 
   42900    274.67987   -473.28779    125671.33   -39042.232    3412.6272    -42454.86    564.78663   0.99238231 
   43000    271.92468   -550.74451    125541.72   -39133.304    3378.3967   -42511.701    566.18703   0.99340682 
   43100    270.92729   -358.90266    125688.94    -39121.97    3366.0051   -42487.975    568.09114   0.99224322 
   43200    275.78913   -349.19857    125760.37   -39081.257    3426.4086   -42507.666    569.36568   0.99167968 
   43300    269.92071   -397.47652    125828.78   -39074.993    3353.4993   -42428.492    571.53409   0.99114056 
   43400    277.69335   -494.46939    125886.28   -39126.821    3450.0667   -42576.888    573.01106   0.99068778 
   43500    277.40411   -696.90827     125903.5    -39050.98    3446.4732   -42497.453    574.85723   0.99055228 
   43600     274.8526   -313.71604    125887.93   -39042.518    3414.7731   -42457.292    575.34843   0.99067481 
   43700    277.05083   -241.76957    126070.78   -38928.133     3442.084   -42370.217    577.81415   0.98923795 
   43800    281.94964    -482.2931     126219.6   -38961.024    3502.9469   -42463.971    579.07874   0.98807158 
   43900    272.84923   -447.30638    126290.74   -38977.282    3389.8832   -42367.165    581.09371   0.98751501 
   44000    271.33602   -563.10491    126111.22   -39003.332    3371.0831   -42374.415    582.65034   0.98892074 
   44100    278.00697   -577.58201    126191.12   -39007.848    3453.9631   -42461.811    584.19273   0.98829463 
   44200    272.28977   -523.42794    126107.51   -39048.068    3382.9325       -42431    585.74678   0.98894984 
   44300     273.4315   -533.32041    126082.36   -39114.304    3397.1174   -42511.422    587.41437   0.98914712 
   44400    272.18364    -431.5501    125786.84    -39150.19     3381.614   -42531.804    587.17657   0.99147103 
   44500    271.46569   -504.95973    125583.02    -39104.03    3372.6942   -42476.724    587.80209   0.99308011 
   44600    270.97063   -477.08855    125726.35   -39116.869    3366.5436   -42483.412    589.79339   0.99194802 
   44700    272.35562   -530.09898    125884.32    -39169.96    3383.7507    -42553.71    591.13789   0.99070324 
   44800    267.19258   -664.39947    125628.42   -39139.007     3319.605   -42458.612    591.40985   0.99272124 
   44900    270.69997   -588.32156    125471.53   -39102.599    3363.1808    -42465.78    591.90192   0.99396254 
   45000    274.17555   -639.06324    125510.01    -39035.74    3406.3615   -42442.101    593.71277   0.99365786 
   45100     275.6712   -568.62075    125648.98   -39022.219    3424.9435   -42447.163     595.9992   0.99255886 
   45200    281.94258   -419.70265    125832.24   -38941.723    3502.8592   -42444.583    598.83332   0.99111326 
   45300    275.17178     -637.132    125831.89    -39002.22    3418.7387   -42420.959    600.26386   0.99111601 
   45400    270.27399    -452.4335    125619.01   -39027.572    3357.8884    -42385.46    600.54129   0.99279563 
   45500     277.1059    -541.5899    125503.96   -38988.867    3442.7683   -42431.635    600.94704   0.99370576 
   45600    272.18711   -423.95223    125484.14   -39059.262    3381.6571    -42440.92    602.13079   0.99386268 
   45700    269.99726   -422.15537    125603.06    -39069.46    3354.4503    -42423.91    603.83039   0.99292168 
   45800    270.30402   -498.27382    125784.11   -39012.345    3358.2616   -42370.607    605.53357    0.9914925 
   45900    274.06034   -416.07169    125835.23   -38961.068    3404.9301   -42365.998    607.11129   0.99108972 
   46000    278.73322   -450.19003    125693.76   -38880.448    3462.9861   -42343.434    608.82708   0.99220518 
   46100    279.89692   -367.48598    125882.97   -38909.422    3477.4439   -42386.866    610.92182   0.99071388 
   46200    276.84327   -395.19135    125646.18   -38805.072    3439.5053   -42244.577    612.22487   0.99258094 
   46300    283.28278   -603.03555    125688.27   -38855.832    3519.5099   -42375.342    614.33555   0.99224857 
   46400    278.68716   -462.99736    125770.21   -38857.297    3462.4139   -42319.711      616.658    0.9916021 
   46500    281.72786    -569.5294    125679.18   -38845.124    3500.1915   -42345.316    618.44344   0.99232028 
   46600    275.99026   -543.48739    125625.44   -38919.018    3428.9074   -42347.925    619.40857   0.99274482 
   46700    274.32274   -409.27465    125764.87   -38940.645    3408.1902   -42348.836    621.19249   0.99164419 
   46800    273.83694   -479.15724    125647.03   -39069.466    3402.1546    -42471.62    622.49258   0.99257421 
   46900    277.44788   -515.30142    125597.58   -39084.294    3447.0169   -42531.311    623.28766     0.992965 
   47000     280.2818   -459.69819    125436.07   -39014.668    3482.2256   -42496.893    624.06094   0.99424358 
   47100    279.24297   -565.88553     125644.7   -39022.968    3469.3192   -42492.287    627.35577   0.99259261 
   47200    269.02913   -438.68326    125718.18   -39016.852    3342.4223   -42359.274    629.47609    0.9920125 
   47300    276.74359   -494.73761    125961.11   -39072.517    3438.2668   -42510.784    631.71008   0.99009927 
   47400    274.72334    -504.4554    125869.76   -39063.799    3413.1673   -42476.967    632.91034   0.99081786 
   47500     273.7115   -283.51932    126329.26   -39008.929    3400.5961   -42409.526    634.97706   0.98721389 
   47600    282.21114    -666.1985    126476.23   -38921.049    3506.1958   -42427.244    636.20129   0.98606672 
   47700    279.11636   -542.13171    126202.37   -38933.144    3467.7462    -42400.89    637.15601   0.98820654 
   47800    283.26714   -658.69183     126001.3   -38966.343    3519.3156   -42485.659    637.90757   0.98978346 
   47900    272.94356   -471.56713    126127.27   -39049.505    3391.0553    -42440.56    639.57779    0.9887949 
   48000    272.17803   -477.06037    126127.88   -39112.832    3381.5442   -42494.376    640.44446   0.98879012 
   48100    271.66335   -569.52746    125828.42   -39145.992    3375.1499   -42521.141    640.75953   0.99114336 
   48200     272.6126   -439.28846    125816.02   -39157.778    3386.9433   -42544.722    642.46303   0.99124105 
   48300    275.83107   -511.16432     125754.9   -39090.332    3426.9297   -42517.261    643.43673   0.99172284 
   48400    276.27366   -396.72182    125657.85   -39079.448    3432.4284   -42511.877    643.86755   0.99248873 
   48500    276.56583   -408.30768     125811.2   -39007.442    3436.0584     -42443.5    645.55557   0.99127904 
   48600    272.57689   -608.86499    125840.38   -39088.185    3386.4997   -42474.685    646.53802   0.99104918 
   48700    278.97219    -490.8135    125839.16   -39037.541     3465.955   -42503.496    646.83057   0.99105879 
   48800    275.84561   -741.24484    125904.39   -39046.026    3427.1104   -42473.136     648.0538   0.99054531 
   48900    272.84581   -594.90153    125791.45   -39062.636    3389.8408   -42452.477    649.79269   0.99143469 
   49000    274.80047   -543.85862    125860.03   -39065.707    3414.1255   -42479.833    651.22371   0.99089446 
   49100    272.61811   -471.77623    125737.58   -39055.594    3387.0118   -42442.606    651.92492    0.9918594 
   49200     275.1956   -499.94378    125594.74   -39104.911    3419.0346   -42523.946    652.80435    0.9929875 
   49300    278.69759   -351.24492    125573.36   -39079.977    3462.5434   -42542.521    653.81782   0.99315655 
   49400    278.47986   -513.15455    125722.33   -39029.239    3459.8384   -42489.077    656.38126   0.99197976 
   49500    275.28406   -562.77394    125728.82   -39043.838    3420.1337   -42463.972    657.82235   0.99192849 
   49600      274.244   -468.02957     126042.3   -39066.586     3407.212   -42473.798    661.02584   0.98946154 
   49700    271.00547    -643.8759    126136.67   -39100.578    3366.9764   -42467.554    662.48509   0.98872127 
   49800    275.04924   -592.84149    125888.67   -39083.662    3417.2162   -42500.878    664.15944   0.99066904 
   49900     274.3509   -427.50826    125881.89   -39086.181      3408.54   -42494.721    666.26423   0.99072233 
   50000    274.93551   -461.63303    125695.56   -39009.126    3415.8032    -42424.93    667.79656   0.99219099 
   50100    275.23368    -542.8573    125762.68   -39036.341    3419.5078   -42455.849    669.83484   0.99166144 
   50200    271.41715   -571.00638    125552.93   -39065.537    3372.0911   -42437.628    671.23821   0.99331818 
   50300    273.05288   -395.90489    125577.04   -39103.113    3392.4135   -42495.527    672.39588   0.99312741 
   50400    277.99843   -328.52847    125587.97   -39040.359     3453.857   -42494.216    673.84486   0.99304096 
   50500    270.59831   -412.95774    125608.05   -39162.786    3361.9178   -42524.703    674.71865   0.99288228 
   50600     268.7001   -233.56195    125901.81   -39136.328    3338.3345   -42474.663    676.69054   0.99056559 
   50700    272.52719   -422.46196    126017.21     -39143.3    3385.8823   -42529.183    678.78853   0.98965852 
   50800    270.43548   -596.45515     126121.9   -39201.124    3359.8948   -42561.019    679.66528   0.98883704 
   50900    274.04101   -546.06904    125964.59   -39183.839    3404.6899   -42588.529    681.67816    0.9900719 
   51000      274.265   -352.78213    126066.39   -39102.699    3407.4728   -42510.172    682.76851   0.98927242 
   51100    276.06378   -267.65067    125983.62   -39181.468    3429.8209   -42611.289    685.15677   0.98992234 
   51200     271.0957   -585.20464    126250.41   -39156.672    3368.0974   -42524.769     687.4563   0.98783049 
   51300    274.54713   -725.04467    126092.15   -39193.587    3410.9781   -42604.565    688.43121   0.98907034 
   51400    273.37421   -317.54364    125808.21   -39196.474    3396.4056   -42592.879     688.4581   0.99130256 
   51500    274.62427   -496.57262    125716.69   -39252.914    3411.9364    -42664.85    690.14994   0.99202426 
   51600    274.11324   -500.79767     125893.5    -39242.08    3405.5873   -42647.667     692.3633   0.99063102 
   51700    269.26985   -772.37128    125718.12    -39270.69     3345.413   -42616.103    692.67693   0.99201297 
   51800    273.79643   -588.63788    125736.03   -39172.189    3401.6513    -42573.84    693.83362   0.99187161 
   51900    267.04682   -512.82468    125518.39   -39188.861    3317.7941   -42506.655    693.11638   0.99359148 
   52000    266.65545   -668.36307    125559.41    -39244.33    3312.9317   -42557.262    695.04137   0.99326688 
   52100    269.07485   -593.29205       125365   -39250.017    3342.9903   -42593.007    695.47903   0.99480722 
   52200     273.7407   -412.13131    125535.22   -39150.745     3400.959   -42551.704    697.59964   0.99345827 
   52300    270.67773   -588.59755    125689.19   -39172.386    3362.9045    -42535.29    698.47691   0.99224132 
   52400    272.03774   -496.10012    125664.42   -39099.382    3379.8013   -42479.183    699.89648   0.99243683 
   52500    271.21142    -569.4761    125690.37   -39127.516    3369.5351   -42497.051    700.78024   0.99223195 
   52600    272.97024    -630.4933    125805.38    -39039.18    3391.3867   -42430.566    704.01519   0.99132485 
   52700    272.45548   -486.57794    125724.65   -39084.457    3384.9914   -42469.448    705.38489   0.99196144 
   52800    276.24717   -539.84646    125638.65   -39062.707    3432.0994   -42494.807    706.50103    0.9926404 
   52900    274.83027   -437.85677    125603.72   -39057.385    3414.4958   -42471.881    706.69116    0.9929165 
   53000    271.89164   -490.39815    125591.83   -39089.123    3377.9862   -42467.109    709.29898   0.99301048 
   53100     272.0084   -327.65242    125834.21   -39068.351    3379.4368   -42447.788     712.0473   0.99109773 
   53200    279.45263   -639.90523    125876.82   -39060.693    3471.9241   -42532.617    713.16894    0.9907623 
   53300    277.47685   -563.82645    125574.31   -39098.085    3447.3769   -42545.462    713.54384   0.99314899 
   53400    275.38938   -582.55326    125608.61   -39123.036    3421.4422   -42544.478    715.54699   0.99287782 
   53500    273.03443   -759.66461    125593.25   -39218.829    3392.1842   -42611.013    716.84928   0.99299927 
   53600    267.01015   -714.57703     125346.5   -39216.675    3317.3384   -42534.014    717.51773   0.99495405 
   53700    266.68613   -219.10107    125162.14    -39233.94    3313.3129   -42547.253    719.59123   0.99641956 
   53800    273.33893   -472.96256    125227.99   -39240.001    3395.9674   -42635.969    722.00818    0.9958956 
   53900    276.93643   -638.00297    125336.25   -39120.811    3440.6627   -42561.473    724.19859   0.99503537 
   54000    268.31157   -299.58373    125304.74   -39145.643    3333.5074   -42479.151    724.21069   0.99528562 
   54100     268.4788   -494.47888    125421.65    -39131.68     3335.585   -42467.265    725.42605   0.99435788 
   54200    274.77193   -555.11247    125410.28   -39098.421    3413.7709   -42512.192    727.39354   0.99444801 
   54300    273.90969   -499.24222    125421.56   -39099.933    3403.0584   -42502.992     730.0345   0.99435858 
   54400    271.42997   -357.71196    125364.54     -39105.7    3372.2504    -42477.95    730.90169   0.99481087 
   54500    270.43418   -437.58221    125498.34   -39103.129    3359.8786   -42463.008    733.54516   0.99375024 
   54600    275.04674   -419.86814    125348.02   -39067.652    3417.1851   -42484.837    734.79216   0.99494192 
   54700    280.56553   -459.87966    125379.94   -38952.646    3485.7507   -42438.396     736.4048   0.99468866 
   54800    269.77044   -595.02769    125208.48   -38968.956    3351.6323   -42320.589     738.8489   0.99605078 
   54900    277.79098   -327.11482    125419.09   -39018.358    3451.2797   -42469.637    741.19456   0.99437813 
   55000    276.11383   -315.30377    125577.78   -39088.599    3430.4427   -42519.042    743.27574   0.99312161 
   55100     271.3101    -639.4187     125544.4   -39145.658    3370.7612   -42516.419    744.82366   0.99338562 
   55200    272.82597   -270.31598     125671.6   -39101.614    3389.5943   -42491.208    747.36939    0.9923802 
   55300    274.14656   -422.46659    125850.55   -39115.386    3406.0014   -42521.387    748.54329   0.99096909 
   55400    274.46532   -413.13863    125868.09   -39079.841    3409.9616   -42489.803    749.60363     0.990831 
   55500    272.57425   -509.59051     125929.5    -39069.27     3386.467   -42455.737     750.3902   0.99034777 
   55600    273.40117   -482.54827     126055.5   -38952.596    3396.7405   -42349.337    753.35105   0.98935788 
   55700    273.33278   -513.22792     126152.5   -39067.817    3395.8909   -42463.708    753.45292   0.98859713 
   55800    272.54412   -746.70111    125940.08   -39063.923    3386.0926   -42450.016    754.41581    0.9902646 
   55900    276.43307   -524.74551    125742.53   -39033.079    3434.4089   -42467.488    755.19228   0.99182041 
   56000    280.08231   -385.15866       125622   -39022.811    3479.7472   -42502.559    755.89861     0.992772 
   56100    280.06136   -468.01147    125645.59   -39008.647    3479.4869   -42488.134    756.95216   0.99258563 
   56200    277.89356   -510.32438    125896.42   -39062.597    3452.5542   -42515.152    760.15252   0.99060798 
   56300    277.32606   -562.80614    126036.17   -39043.787    3445.5035   -42489.291    762.01011   0.98950966 
   56400    275.53977   -431.75806    126219.41   -39053.511    3423.3106   -42476.821    764.20245   0.98807309 
   56500    276.18601   -522.10327    126203.94   -39074.877    3431.3395   -42506.217    766.24711   0.98819423 
   56600     274.1892   -591.35677    125995.21   -39154.712    3406.5311   -42561.243     766.0167   0.98983134 
   56700    272.89782   -624.43367    125964.55   -39154.549     3390.487   -42545.036    766.91408   0.99007225 
   56800    272.29437   -532.14006    126095.23   -39245.379    3382.9897   -42628.369    768.45087   0.98904614 
   56900    275.24524   -349.41547    126102.41   -39140.468    3419.6513    -42560.12    770.50016   0.98898982 
   57000     275.8036   -682.63286    125790.51   -39104.311    3426.5884     -42530.9    770.54675   0.99144205 
   57100    270.98845   -574.45174    125595.74   -39094.047    3366.7649   -42460.812    770.90095   0.99297956 
   57200    273.18209   -546.62297    125630.36   -39127.761    3394.0187   -42521.779    773.82433   0.99270592 
   57300     274.3608   -434.36134    125494.55   -39162.745    3408.6631   -42571.408    775.24441   0.99378026 
   57400      266.954    -534.1958    125555.52   -39233.784    3316.6408   -42550.425    776.40033   0.99329767 
   57500     268.4401   -633.23898    125645.84   -39205.604    3335.1042   -42540.708    777.67824   0.99258363 
   57600    266.00159   -419.16128    125669.78   -39265.916    3304.8081   -42570.724     779.4671    0.9923945 
   57700    271.75207   -550.29077    125658.64   -39261.615    3376.2521   -42637.868    780.53008   0.99248252 
   57800    267.14931   -636.89179     125683.3   -39333.994    3319.0674   -42653.061    781.51467    0.9922878 
   57900    270.31988   -406.45951    125360.07   -39296.912    3358.4586    -42655.37    781.48141    0.9948463 
   58000     268.8452   -412.15103    125559.79   -39273.259    3340.1372   -42613.396    784.55341   0.99326386 
   58100    268.65377   -550.85783    125688.84   -39232.661    3337.7588   -42570.419    785.87907   0.99224401 
   58200    274.15958   -758.78935       125610   -39147.786     3406.163   -42553.949     785.9879   0.99286686 
   58300    271.89911   -333.15671    125670.38   -39067.072     3378.079   -42445.151    787.32959   0.99238983 
   58400    279.87428   -460.72329    125606.86   -39007.245    3477.1626   -42484.408    789.07478   0.99289166 
   58500     274.8752   -480.51936    125710.29   -39005.539     3415.054   -42420.593     791.8208   0.99207471 
   58600     276.1266   -625.30801    125790.73   -39034.964    3430.6014   -42465.566    794.25621    0.9914403 
   58700    272.85081   -672.89787    125606.23   -38987.244    3389.9029   -42377.147    795.22883   0.99289666 
   58800    278.95774    -531.3625    125691.16   -38983.761    3465.7755   -42449.537    796.84239   0.99222572 
   58900    278.04102   -509.09914     125663.5   -39029.799    3454.3862   -42484.186    797.29663   0.99244412 
   59000    274.00149   -351.61745    125897.47   -39100.699     3404.199   -42504.898    798.70032   0.99059978 
   59100    276.79302   -694.64617    126174.11   -39054.553     3438.881   -42493.434    800.45771   0.98842782 
   59200    269.24556   -583.91544    125872.02   -39099.582    3345.1112   -42444.693    799.19341   0.99080003 
   59300    269.38964   -320.47443    126010.09   -39103.586    3346.9013   -42450.487    801.64055   0.98971443 
   59400    267.69857   -503.83005    126112.05   -39121.361    3325.8914   -42447.253     803.2727   0.98891421 
   59500    273.29963    -384.3368       126020   -39108.725    3395.4791   -42504.204    805.02495    0.9896366 
   59600    272.26887   -548.16437    125685.72   -39118.495    3382.6729   -42501.168    805.96165   0.99226868 
   59700    269.92487   -571.91088     125596.3   -39110.785     3353.551   -42464.336    807.88433   0.99297515 
   59800    271.74092   -543.56058    125716.23   -39106.451    3376.1137   -42482.564    809.11731   0.99202785 
   59900     273.7156   -367.28587    125830.31   -39151.582    3400.6471    -42552.23    811.34421   0.99112845 
   60000    279.32953   -316.98347    125914.49   -39171.258    3470.3946   -42641.653    813.39574   0.99046586 
   60100    272.43314   -422.71741    126051.96    -39161.84    3384.7138   -42546.553    816.51954   0.98938564 
   60200    279.95936   -389.21079    126158.36   -39141.147    3478.2196   -42619.367    817.56647   0.98855127 
   60300    267.58693   -433.09008    126213.23   -39102.625    3324.5043   -42427.129    819.41914   0.98812146 
   60400    278.02733   -519.02369    126031.11   -39053.251     3454.216   -42507.467     820.2609   0.98954935 
   60500    281.35618   -783.89508    126027.46    -38978.03    3495.5737   -42473.604    821.29428   0.98957798 
   60600    278.40352   -414.61384    125843.92   -39031.313    3458.8899   -42490.203    822.16294   0.99102129 
   60700    275.27242    -594.3713    125985.37   -39064.193    3419.9891   -42484.183     823.9391    0.9899086 
   60800    273.03805   -547.29171    125859.36   -39124.158    3392.2292   -42516.388    824.69658   0.99089969 
   60900    278.23437   -668.03852    125789.92   -39063.664    3456.7883   -42520.452     825.6051   0.99144669 
   61000    275.79175   -510.35262     126154.4    -39095.86    3426.4412   -42522.301    828.26365   0.98858228 
   61100     270.3581   -784.87002    126036.23   -39121.187    3358.9334    -42480.12    829.30039   0.98950914 
   61200    276.51088   -530.75869    125935.09   -39122.383    3435.3756   -42557.759     829.4483   0.99030387 
   61300    273.82706   -554.05415    125868.25    -39118.05    3402.0319   -42520.082     830.4629   0.99082972 
   61400    273.58513    -301.3064    125635.93   -39119.402    3399.0262   -42518.428     831.3017    0.9926619 
   61500    269.51916   -570.28169    125794.75   -39193.758    3348.5104   -42542.268    833.23768   0.99140861 
   61600    273.71201   -734.07765    125667.48   -39186.995    3400.6024   -42587.598    834.55742   0.99241272 
   61700    273.53197   -448.56639    125980.38   -39129.449    3398.3656   -42527.814     837.0842   0.98994781 
   61800    270.71652   -448.33417    125508.09   -39223.283    3363.3865   -42586.669    836.98183   0.99367302 
   61900    268.70243     -346.611    125604.16   -39304.785    3338.3634   -42643.148    837.34329   0.99291298 
   62000    269.32599   -252.26251    125526.89   -39227.356    3346.1105   -42573.467    838.89748   0.99352423 
   62100    270.07985   -302.81466    125751.48   -39200.704    3355.4764   -42556.181    842.45508   0.99174979 
   62200    269.87384   -429.20538    125717.83   -39170.701    3352.9169   -42523.618      844.243   0.99201527 
   62300    273.96985   -448.58465    126010.06   -39097.299    3403.8059   -42501.105    847.34212   0.98971462 
   62400    273.96536   -432.20634    126259.77   -39119.892    3403.7501   -42523.642    848.26055   0.98775722 
   62500     271.6907   -426.18687    126312.83    -39029.75    3375.4897    -42405.24    849.60343    0.9873423 
   62600    274.38486    -419.9761    126441.24   -39082.009     3408.962   -42490.971    851.00692    0.9863396 
   62700    276.38517   -527.77998    126198.02   -39133.626    3433.8138    -42567.44    850.99301   0.98824057 
   62800    274.00022    -667.8485    126224.91   -39174.635    3404.1832   -42578.819    853.35977   0.98803008 
   62900    273.94614   -450.21896    126218.72   -39132.788    3403.5113   -42536.299    856.41187   0.98807853 
   63000     273.2348   -666.61955    126270.89   -39098.998    3394.6736   -42493.672    858.37715    0.9876703 
   63100    275.31542   -455.65556    126032.76    -39049.42    3420.5233   -42469.943    860.42971   0.98953643 
   63200    277.82274   -508.04748    126169.67   -39002.686    3451.6742    -42454.36    863.04406   0.98846261 
   63300    272.39939      -328.26    126214.35   -39042.271    3384.2945   -42426.566       865.38   0.98811273 
   63400     276.8656   -541.57347    126249.83   -39031.504    3439.7827   -42471.286    867.97321   0.98783502 
   63500    276.48981   -366.90383    125912.21   -39025.945    3435.1139   -42461.059    868.30022   0.99048383 
   63600    276.48006   -431.05396    126031.95   -39119.734    3434.9928   -42554.727    872.64658   0.98954272 
   63700    276.08353   -462.39139     125837.4   -39097.106    3430.0663   -42527.173    873.87756   0.99107266 
   63800    271.20821   -532.21987    125942.85   -39164.326    3369.4952   -42533.821    875.47884   0.99024279 
   63900    265.10151    -507.8254    125960.54     -39304.5    3293.6254   -42598.125    877.07046   0.99010379 
   64000    269.00085   -416.19871    126056.59   -39242.055    3342.0709   -42584.126    877.76487   0.98934933 
   64100     272.9138   -591.96704    126057.92   -39171.156    3390.6855   -42561.841    879.07561   0.98933893 
   64200    279.08167   -600.51783    126150.09   -39101.926    3467.3152   -42569.241    880.40325   0.98861604 
   64300    270.84032   -516.50033    126073.04   -39153.876    3364.9246   -42518.801    881.07052   0.98922023 
   64400    278.63504    -759.1926    125830.12   -38999.518    3461.7663   -42461.285    881.12609   0.99112998 
   64500    270.00571   -513.48868       125708   -39064.746    3354.5554   -42419.302    881.81656    0.9920928 
   64600    274.52856   -449.12069    125625.98   -39057.092    3410.7473    -42467.84    882.05418   0.99274056 
   64700    277.64652   -605.24059    125798.74   -39097.367    3449.4849   -42546.852    884.14249   0.99137717 
   64800    274.13843    -430.7172    125771.91   -39102.563    3405.9003   -42508.463    884.35928   0.99158867 
   64900    276.41608   -469.11409    125609.44   -39097.189    3434.1979   -42531.387    885.61938   0.99287127 
   65000     273.5464   -538.94804    125592.05    -39046.57    3398.5449   -42445.115     886.8076    0.9930087 
   65100    278.64266   -308.38205    125595.55   -39005.841     3461.861   -42467.702    888.74015   0.99298108 
   65200    273.33149   -553.47039    125791.15   -39032.678    3395.8749   -42428.553     890.0331   0.99143706 
   65300    279.26308   -658.94698    125677.34   -39039.836    3469.5691   -42509.406    890.19746   0.99233484 
   65400    280.47754   -375.30886    125816.93   -39024.483    3484.6575   -42509.141    892.94583   0.99123384 
   65500    277.15431   -356.04123    125881.57   -38998.968    3443.3697   -42442.337    894.84365   0.99072485 
   65600    274.40606   -486.47125    125808.47   -39060.022    3409.2254   -42469.248    895.78007   0.99130057 
   65700    273.96342   -642.33264    125855.35   -39098.173     3403.726   -42501.899    897.57021   0.99093132 
   65800    270.88758   -372.54459    126026.69    -39183.09    3365.5117   -42548.602    899.67994   0.98958408 
   65900    270.17194   -513.37025       126077   -39191.355    3356.6206   -42547.976    901.72723   0.98918916 
   66000    275.99186   -361.26159    125989.01   -39108.954    3428.9274   -42537.882    903.08875   0.98988005 
   66100    277.30265   -713.86358    125869.73   -39056.456    3445.2127   -42501.668    903.71156    0.9908181 
   66200    280.45873   -808.35112    125544.95   -38986.009    3484.4238   -42470.433    904.13888   0.99338126 
   66300    274.49237   -477.22392    125798.42   -38917.023    3410.2977   -42327.321    906.41134   0.99137974 
   66400    273.94338   -621.32284     125927.3   -38980.693    3403.4771    -42384.17    908.49857   0.99036507 
   66500    278.55394   -447.56928    126032.74   -38996.292    3460.7586    -42457.05    909.18501   0.98953655 
   66600    274.61186   -553.63266    125873.58   -39008.201    3411.7822   -42419.983    909.07443    0.9907878 
   66700    275.05944   -391.29317    125679.64   -39078.526     3417.343   -42495.869    910.19124   0.99231667 
   66800    273.53863   -369.34293    125520.65   -39092.648    3398.4484   -42491.097    910.68886   0.99357358 
   66900    274.69477   -400.27761    125788.07   -39038.647    3412.8123    -42451.46    913.88299   0.99146131 
[...]
   84800    267.52181   -421.77718     125753.1   -39231.154    3323.6953   -42554.849    1140.6153   0.99173702 
   84900    269.39868    -290.5298    125775.77   -39182.801    3347.0136   -42529.815    1141.4826   0.99155826 
   85000    269.90581   -632.90373    125864.57   -39163.103    3353.3142   -42516.418    1144.0001   0.99085872 
   85100    271.04681   -623.46374    125907.11   -39112.698      3367.49   -42480.188    1145.3642   0.99052394 
   85200    274.15641   -454.77917    125944.16   -39101.824    3406.1237   -42507.947    1145.5834   0.99023249 
   85300    266.97923   -601.71434     125906.5   -39148.905    3316.9543    -42465.86    1147.0002   0.99052872 
   85400    270.33558   -542.73003    125771.03   -39156.168    3358.6537   -42514.822    1147.2763   0.99159561 
   85500    277.35221   -367.60057    125981.93    -39160.78    3445.8284   -42606.608    1148.9864   0.98993568 
   85600    274.26105   -457.39387    126009.87   -39118.643    3407.4238   -42526.067    1150.4074   0.98971618 
   85700    277.04329   -424.40757     126039.5   -39094.863    3441.9903   -42536.853    1150.6024   0.98948345 
   85800    274.56766   -515.45119     126067.7   -39136.127    3411.2331    -42547.36    1152.6874   0.98926213 
   85900    271.74456   -635.77169    125920.94   -39089.882    3376.1589   -42466.041     1151.632   0.99041514 
   86000    275.84494   -434.11659     126040.9   -39057.593    3427.1021   -42484.696    1154.2057   0.98947246 
   86100    277.04081   -566.59927    126020.36   -39053.102    3441.9595   -42495.061    1156.9173   0.98963376 
   86200    272.91671   -546.64557    126033.35   -39072.603    3390.7217   -42463.325    1159.7238    0.9895318 
   86300    273.57017   -702.26541    126111.67   -39019.888    3398.8402   -42418.728    1162.7064   0.98891726 
   86400    271.85701   -511.87675    125861.08   -39103.233    3377.5559   -42480.789    1162.2056   0.99088616 
   86500    273.69489   -371.12683    125841.62   -39088.617    3400.3898   -42489.007    1162.8659   0.99103937 
   86600    279.39371   -364.65339    126038.94   -39065.698     3471.192    -42536.89    1165.5855   0.98948789 
   86700    276.45019   -658.26474     126044.3   -39042.316    3434.6217   -42476.938    1168.2634   0.98944581 
   86800    276.76075   -630.42043    125958.87   -39047.444    3438.4801   -42485.924    1168.1662   0.99011692 
   86900    273.05935   -491.74459    125714.13   -39097.506    3392.4938       -42490    1167.5539   0.99204444 
   87000    272.54295   -335.50421    125661.87   -39027.982    3386.0781    -42414.06    1169.3357   0.99245704 
   87100    277.35379   -346.91698    126068.87   -39061.322     3445.848   -42507.171    1172.0621   0.98925295 
   87200    274.05319   -520.93595    125996.82   -39143.608    3404.8413   -42548.449    1171.7631   0.98981866 
   87300    270.38469   -419.92891    125894.24   -39072.651    3359.2638   -42431.915    1171.5347   0.99062514 
   87400     274.3253   -572.94713    125998.53   -39112.831     3408.222   -42521.053    1173.3156   0.98980522 
   87500    277.15126   -642.79258    125719.04   -39116.142    3443.3318   -42559.474     1172.988   0.99200567 
   87600    274.67079   -749.26454    125505.53    -39142.01    3412.5144   -42554.524    1172.9915   0.99369326 
   87700       273.69   -415.94222    125563.64   -39142.311     3400.329    -42542.64    1175.3125   0.99323339 
   87800     275.4849   -480.50594    125630.81   -39100.141    3422.6289    -42522.77    1177.2872   0.99270241 
   87900    273.67268   -406.36791    125763.55   -39095.029    3400.1139   -42495.143    1180.2691   0.99165462 
   88000    269.96827   -494.55978    125836.46   -39165.579    3354.0901   -42519.669    1181.9913   0.99108002 
   88100    273.36098   -539.33513    125974.96   -39138.267    3396.2413   -42534.508    1183.1997   0.98999043 
   88200    276.47673   -537.46711    125849.48   -39127.256    3434.9514   -42562.208    1183.8548   0.99097751 
   88300    272.19877   -442.97567     125895.2   -39086.158    3381.8019    -42467.96    1185.7137   0.99061764 
   88400    271.32047   -576.34378    125782.66   -39193.636      3370.89   -42564.526    1186.6172   0.99150391 
   88500    273.55707    -573.3147    125814.04   -39293.282    3398.6775    -42691.96    1186.8667   0.99125664 
   88600    273.06064   -372.94957    125685.36    -39155.94    3392.5098    -42548.45    1187.8117   0.99227149 
   88700    279.51832   -503.86887    125575.04   -39050.789    3472.7402   -42523.529    1187.9809   0.99314327 
   88800    272.71308   -637.85967    125806.88   -39047.991    3388.1917   -42436.183    1191.0029   0.99131306 
   88900    272.28863   -436.28007    125844.73   -38962.024    3382.9184   -42344.942    1193.0547   0.99101489 
   89000    275.37518   -501.55289     125741.5   -38947.564    3421.2658    -42368.83     1194.512   0.99182854 
   89100    274.95457   -422.78759     125870.4    -38931.29    3416.0401    -42347.33    1196.0394   0.99081284 
   89200    274.10159   -409.73673    125888.82   -39057.397    3405.4426    -42462.84    1198.7811   0.99066786 
   89300    272.01095   -379.22219    125921.96   -39074.049    3379.4684   -42453.517    1200.5289   0.99040711 
   89400    272.15262   -549.63391    125739.35   -39139.173    3381.2285   -42520.402    1200.3896   0.99184544 
   89500    273.49741    -478.3591    125704.35   -39165.135    3397.9363   -42563.072    1201.5832    0.9921216 
   89600    270.94232   -400.04661    125844.56   -39249.415    3366.1918   -42615.607    1203.8735   0.99101623 
   89700    266.63877   -481.54321    125697.61    -39296.17    3312.7244   -42608.894    1204.1944   0.99217484 
   89800    266.75073   -375.13427    125413.42   -39249.766    3314.1154   -42563.881    1202.2769   0.99442309 
   89900    267.39969   -597.05776    125423.85   -39204.514    3322.1781   -42526.692    1203.9727   0.99434039 
   90000    269.64488   -693.65699    125335.37   -39285.518    3350.0724   -42635.591    1203.5451   0.99504235 
   90100    273.15191   -338.99996    125339.41   -39152.242    3393.6437   -42545.886     1205.205   0.99501033 
   90200    271.03003    -339.9512    125457.33    -39184.32    3367.2815   -42551.601    1206.0726   0.99407509 
   90300    268.30926    -284.9602    125545.21   -39196.696    3333.4786   -42530.175    1208.4135   0.99337925 
   90400    268.63071    -304.0499    125682.07   -39188.832    3337.4723   -42526.305    1210.9987   0.99229752 
   90500    269.98275    -428.4601    125627.64   -39168.795      3354.27   -42523.065    1211.3237   0.99272745 
   90600    272.33727   -589.07874    125644.57    -39113.32    3383.5227   -42496.843    1213.9847   0.99259363 
   90700    274.29846   -367.01784    125713.28   -39075.612    3407.8886   -42483.501    1214.7902   0.99205114 
   90800     272.8056    -582.9199    125740.09   -39044.028    3389.3412   -42433.369     1216.466   0.99183965 
   90900    272.88871   -583.10877    125754.31   -39041.391    3390.3737   -42431.764    1218.4649   0.99172746 
   91000     265.3498   -476.48421    125717.32    -39164.48    3296.7103    -42461.19    1219.7447   0.99201924 
   91100     272.7525   -268.36187    125713.56   -39148.104    3388.6814   -42536.785    1220.9089    0.9920489 
   91200    277.14039   -333.73266    125795.59   -39145.014    3443.1968   -42588.211    1222.7376   0.99140202 
   91300    271.39178   -277.19076    126027.99   -39130.063    3371.7759   -42501.838    1226.2314   0.98957384 
   91400      278.127   -723.11838    126058.15    -38968.49    3455.4544   -42423.944    1226.4937   0.98933707 
   91500     274.0616   -445.60615    126021.82   -39023.557    3404.9458   -42428.503    1226.0589   0.98962231 
   91600    277.87364    -408.1408    125803.76   -39008.814    3452.3067   -42461.121    1224.9646   0.99133766 
   91700    276.49994   -361.41118    125961.14   -39086.937    3435.2398   -42522.177    1228.2467   0.99009902 
   91800    269.16446   -459.30968    126066.14   -39165.054    3344.1036   -42509.157    1230.5259   0.98927436 
   91900    272.60582   -459.54567    126056.54   -39124.958    3386.8592   -42511.817     1231.869   0.98934975 
   92000    272.79273    -460.0347    125965.71   -39105.349    3389.1813    -42494.53    1231.8475    0.9900631 
   92100    267.35573     -520.628    125962.06   -39133.954    3321.6319   -42455.586    1234.0722   0.99009179 
   92200    270.56067   -529.32133    125786.49   -39217.435    3361.4502   -42578.885    1233.6268   0.99147372 
   92300    269.23805   -549.74883    125730.45   -39102.822    3345.0179    -42447.84    1234.0216    0.9919157 
   92400    280.49988   -482.09899    125778.85    -38962.73    3484.9351   -42447.665    1235.2263   0.99153397 
   92500    276.93311   -415.58391    125842.08   -38964.164    3440.6215   -42404.786    1236.7148   0.99103577 
   92600    279.46097   -388.34853    125962.08   -39003.378    3472.0276   -42475.406    1238.9003   0.99009162 
   92700    275.35029     -500.875    126009.63    -39004.07    3420.9565   -42425.026      1241.63     0.989718 
   92800     272.4927   -577.00674    126041.06   -39017.538    3385.4538   -42402.992    1243.6573   0.98947121 
   92900    273.50713   -550.45374    125611.04    -39061.18     3398.057   -42459.237    1242.0232   0.99285859 
   93000    277.96326    -526.2934     125507.4   -38973.882      3453.42   -42427.302    1241.8673   0.99367847 
   93100    273.03573   -461.15612    125446.83   -39054.902    3392.2004   -42447.102    1242.2945   0.99415828 
   93200    277.47068   -471.12969    125627.43   -38960.301    3447.3002   -42407.601    1244.7489   0.99272905 
   93300    277.72281   -448.20198    125736.96   -38968.602    3450.4327   -42419.035    1248.3566   0.99186432 
   93400    274.53654   -572.55436    125886.72   -39022.974    3410.8464   -42433.821    1250.6689   0.99068435 
   93500    271.31584   -619.16067    125556.46   -39092.577    3370.8324   -42463.409    1251.4595   0.99329024 
   93600    270.49935   -497.46211    125716.55   -39093.039    3360.6883   -42453.727    1253.2674   0.99202536 
   93700    271.82448   -345.15725    125714.09   -39228.676    3377.1517   -42605.828    1254.7522   0.99204473 
   93800    268.59562   -467.52494    125400.28   -39205.279    3337.0363   -42542.316    1253.9842   0.99452729 
   93900    270.49938   -165.68854    125588.98   -39135.069    3360.6888   -42495.757    1256.2604   0.99303303 
   94000    279.11071   -517.52827    125597.68   -39079.859    3467.6761   -42547.535     1257.668   0.99296424 
   94100     270.4696   -536.49304    125545.05   -39147.944    3360.3188   -42508.263    1258.6003   0.99338047 
   94200     268.4999   -382.18678    125543.16   -39153.094    3335.8471   -42488.941    1259.0208   0.99339543 
   94300    274.55383   -210.17389    125773.97   -39131.737    3411.0613   -42542.799    1261.8414   0.99157241 
   94400    272.75567   -416.91026    126038.28   -39077.135    3388.7209   -42465.856    1264.5537   0.98949308 
   94500    276.09315   -513.03804    126092.01   -39005.332    3430.1858   -42435.518    1265.8129   0.98907144 
   94600     284.3911   -450.76135    125896.95   -38924.439    3533.2797   -42457.719    1265.5131   0.99060382 
   94700    276.47048   -436.87846     125727.3   -39037.133    3434.8738   -42472.007     1266.159   0.99194053 
   94800    272.27542   -356.68028    125750.39   -39091.198    3382.7543   -42473.952    1266.8456   0.99175838 
   94900    270.99713   -381.98455    125842.13   -39089.441    3366.8728   -42456.314    1269.7084   0.99103535 
   95000    275.37053   -447.58385    126164.55   -38993.409    3421.2079   -42414.617    1273.3369   0.98850275 
   95100    276.51744   -389.45797    126287.77   -38970.061    3435.4571   -42405.518    1274.9809   0.98753827 
   95200    275.27001   -883.10534    126408.94   -39030.811     3419.959    -42450.77    1276.7444   0.98659164 
   95300    277.06405    -458.6349    126035.15   -39045.512    3442.2483   -42487.761    1277.9602   0.98951766 
   95400    278.14462   -698.85172    126025.26   -38963.897    3455.6732    -42419.57    1278.8692   0.98959525 
   95500    278.90569   -574.57479    125509.32    -39016.84    3465.1289   -42481.968     1277.279   0.99366325 
   95600    273.14379   -276.39701    125727.65   -39040.139     3393.543   -42433.682    1279.3458   0.99193776 
   95700    275.92168   -483.67741    125662.52    -38994.03    3428.0554   -42422.085    1278.7495   0.99245189 
   95800    274.12659   -449.83859    125423.89   -39082.945    3405.7532   -42488.698    1278.1251   0.99434009 
   95900    272.02737   -405.49613    125708.41   -39124.498    3379.6725    -42504.17    1281.4318    0.9920896 
   96000    275.38437   -661.96494    125758.72   -39090.447    3421.3799   -42511.827    1283.6828    0.9916927 
   96100    269.34726     -551.736     125455.6   -39171.003    3346.3747   -42517.377    1282.4908   0.99408874 
   96200    274.16065   -397.45408     125419.7   -39145.755    3406.1764   -42551.932    1283.3476   0.99437333 
   96300    271.00214   -505.77188    125429.96   -39191.153     3366.935   -42558.088    1284.6434   0.99429197 
   96400    276.16262   -409.30164    125529.71   -39152.405    3431.0489   -42583.454    1285.8333   0.99350185 
   96500      268.204   -503.78901    125698.45   -39110.568    3332.1709   -42442.739    1289.7131   0.99216817 
   96600    275.38738    -463.6275    125689.46   -39095.962    3421.4173   -42517.379    1291.2562   0.99223914 
   96700    269.92146   -291.15045    125725.66   -39151.895    3353.5087   -42505.404    1292.3459   0.99195349 
   96800    265.81227   -540.51386    125925.81   -39250.392    3302.4559   -42552.848    1294.5986   0.99037684 
   96900    268.61795   -427.06827    125784.96   -39229.058    3337.3138   -42566.372    1293.3499    0.9914858 
   97000    271.86648   -301.81574     125676.9   -39149.411    3377.6736   -42527.085    1293.8741   0.99233831 
   97100    274.37139   -406.96812    126020.85   -39158.643    3408.7946   -42567.438    1297.3455   0.98962994 
   97200    271.40394   -500.50769    126264.21   -39228.352     3371.927   -42600.279    1298.7114   0.98772249 
   97300    270.48817   -567.81928    125998.25   -39196.586    3360.5494   -42557.135    1297.9335   0.98980743 
   97400     272.2152   -641.11077    125950.75   -39256.537    3382.0061   -42638.543    1300.6689   0.99018068 
   97500    274.62614   -447.31227    126081.72   -39215.304    3411.9596   -42627.264    1303.0189   0.98915212 
   97600     274.3937   -587.88078    125985.84   -39116.191    3409.0718   -42525.262    1302.7167   0.98990493 
   97700    273.62134   -599.39142    125904.95   -39212.851     3399.476   -42612.327    1304.0046    0.9905409 
   97800    276.40936   -339.25619    125857.91    -39135.56    3434.1143   -42569.674    1303.9653   0.99091116 
   97900    271.70733   -333.11718    126251.22   -39095.169    3375.6963   -42470.865    1309.0487   0.98782412 
   98000     275.8438   -521.12082    126017.47   -39008.629    3427.0879   -42435.717    1309.3431   0.98965647 
   98100    275.43695    -532.5476    126006.23   -39062.398    3422.0331   -42484.431    1312.0045   0.98974471 
   98200    269.00514   -655.69214     125661.9   -39110.629    3342.1242   -42452.753    1310.5156   0.99245675 
   98300    274.77431    -409.2125    125712.02   -39088.563    3413.8005   -42502.363    1312.8044    0.9920611 
   98400    270.83245   -335.49625     125895.6   -39151.251    3364.8268   -42516.078    1315.1797    0.9906145 
   98500     274.2354   -768.37272    125814.05   -39172.707     3407.105   -42579.812    1315.4971   0.99125654 
   98600    272.68329   -359.65138    125765.23   -39192.911    3387.8216   -42580.733    1315.3991    0.9916414 
   98700    271.95358   -539.58522    125782.58    -39218.28    3378.7558   -42597.036    1316.1369   0.99150459 
   98800    269.12021   -524.96461     125633.3   -39276.079    3343.5538   -42619.633     1316.392   0.99268268 
   98900    269.17345    -600.9483    125599.66   -39234.896    3344.2153   -42579.111    1316.5428   0.99294855 
   99000    272.16345   -627.90544    125463.52   -39248.859    3381.3632   -42630.222    1317.0189   0.99402599 
   99100    266.91785   -336.77729    125690.91   -39224.649    3316.1917    -42540.84    1319.6046   0.99222773 
   99200    269.64893   -431.01389    125854.63   -39147.386    3350.1227   -42497.509    1322.3063   0.99093692 
   99300    276.25868   -418.40638     125784.5   -39136.795    3432.2423   -42569.037    1322.0453   0.99148943 
   99400    272.69903   -503.72694    126166.06   -39118.539    3388.0171   -42506.556    1328.6785   0.98849093 
   99500    272.99245   -410.44074    126156.54   -39014.507    3391.6626    -42406.17    1328.1257   0.98856547 
   99600    277.97279   -488.23017    126147.17   -38921.878    3453.5384   -42375.416    1330.4672   0.98863892 
   99700    277.04244   -562.13393    126088.59   -38933.147    3441.9798   -42375.127    1330.7698   0.98909822 
   99800    276.34298   -437.45792    125980.73   -38914.617    3433.2897   -42347.907    1333.0115   0.98994511 
   99900    275.79285   -314.28403    125921.57   -38961.527    3426.4549   -42387.982     1334.235   0.99041015 
  100000    278.17859   -568.75665    126112.96   -39041.391    3456.0954   -42497.487    1337.2888    0.9889071 
  100100    275.38218   -554.15269    125989.37   -39052.346    3421.3527   -42473.699    1339.3144   0.98987721 
  100200    277.85512   -352.70376    125909.36   -38969.845    3452.0766   -42421.922    1340.5031   0.99050622 
  100300    280.08547   -379.84441    126039.06   -38962.858    3479.7864   -42442.645    1342.4343   0.98948698 
  100400    280.99522    -624.9812     126053.3   -38955.654    3491.0892   -42446.743     1345.298   0.98937518 
  100500    274.60874   -490.84189    125961.33   -38951.241    3411.7435   -42362.985    1346.2724   0.99009758 
  100600    280.63754   -479.37706    126089.88     -38887.1    3486.6453   -42373.745    1347.4039   0.98908814 
  100700    272.07016   -442.77172    125876.42   -38971.007    3380.2042   -42351.211    1346.6013   0.99076543 
  100710    277.98267   -570.61932     125885.2   -38938.486    3453.6613   -42392.148    1346.7749   0.99069635 
Loop time of 175.385 on 6 procs for 100000 steps with 4169 atoms

Performance: 246.316 ns/day, 0.097 hours/ns, 570.175 timesteps/s
99.3% CPU use with 6 MPI tasks x no OpenMP threads

MPI task timing breakdown:
Section |  min time  |  avg time  |  max time  |%varavg| %total
---------------------------------------------------------------
Pair    | 147.42     | 148.74     | 150.27     |   7.3 | 84.81
Neigh   | 7.2187     | 7.249      | 7.2994     |   0.9 |  4.13
Comm    | 15.014     | 16.548     | 17.934     |  22.2 |  9.44
Output  | 0.16868    | 0.16998    | 0.17601    |   0.7 |  0.10
Modify  | 1.943      | 1.9747     | 1.9957     |   1.3 |  1.13
Other   |            | 0.6984     |            |       |  0.40

Nlocal:        694.833 ave         699 max         690 min
Histogram: 1 1 0 0 0 0 2 1 0 1
Nghost:        1596.67 ave        1611 max        1581 min
Histogram: 1 1 0 0 1 1 0 0 0 2
Neighs:        0.00000 ave           0 max           0 min
Histogram: 6 0 0 0 0 0 0 0 0 0
FullNghs:      23075.7 ave       23339 max       22927 min
Histogram: 2 0 1 0 2 0 0 0 0 1

Total # of neighbors = 138454
Ave neighs/atom = 33.210362
Neighbor list builds = 7029
Dangerous builds = 0

undump              1
unfix               2
unfix               3
unfix               4


################################################
#######         Run Simulation         #########
################################################

reset_timestep      0
log                 log.run_${NAME}
log                 log.run_liquid_274K_500atm_mW
