LAMMPS data file via write_data, version 12 Dec 2018, timestep = 50000

1528 atoms
1 atom types

2.3805763994101170e-02 4.9627037732157589e+01 xlo xhi
1.7564619041541718e-02 3.1260345587153409e+01 ylo yhi
1.7564619041541718e-02 3.1260345587153409e+01 zlo zhi

Masses

1 18.015

Atoms # atomic

300 1 1.5613441260161494e+00 1.9849438774321362e+00 1.5400775424832536e+00 0 1 0
275 1 3.1638433579669232e+00 3.6733498766421215e+00 3.3807420916707527e-02 0 1 0
295 1 3.1270381964905147e+00 3.2301116455946455e-01 3.5207423911281479e+00 0 1 0
302 1 6.5404338394347770e+00 3.7099369075651230e+00 3.5646743421142175e+00 0 1 0
271 1 6.7646846491288022e+00 2.6498815580411383e-01 4.1765746730489750e-01 0 1 0
297 1 8.2272651824841194e+00 2.1370149730384944e+00 1.9433716638434033e+00 0 1 0
299 1 9.2082467043490137e+00 4.9571370837493950e-01 3.8776460379256315e+00 0 1 0
381 1 1.2919684237575581e+01 6.2160163386170164e-01 5.5366008038850412e-01 0 1 0
280 1 9.9559760899405383e+00 3.6088607821732661e+00 6.4169149471924619e-02 0 1 0
366 1 1.2732157408155024e+01 3.7976223154549333e+00 3.4853887922188656e+00 0 1 0
374 1 1.4244743376710453e+01 2.2576662799600835e+00 2.1636305315324407e+00 0 1 0
368 1 1.5563053963918115e+01 3.8586013273060251e+00 5.9517095725771962e-01 0 1 0
373 1 1.5884646870117642e+01 7.7640880070326623e-01 3.5462124338131469e+00 0 1 0
306 1 2.8887648668189421e+00 6.6092643294094744e+00 3.1371583006138466e+00 0 1 0
284 1 6.3652687104665162e+00 6.8839729248600978e+00 1.5503442310668514e-01 0 1 0
301 1 4.5796637419591359e+00 5.0160763144660603e+00 1.7684904024883796e+00 0 1 0
308 1 9.7585505108823050e+00 6.9787651440950613e+00 3.3717574045325627e+00 0 1 0
324 1 1.2409788277526927e+01 6.7231764924484541e+00 2.5078161557249246e-01 0 1 0
303 1 1.1232507250773235e+01 5.3365354842722690e+00 1.9534893353689771e+00 0 1 0
376 1 1.5611106457465805e+01 6.7151094440605341e+00 3.2666599240390952e+00 0 1 0
290 1 3.2240142545943216e+00 9.8387516987087729e+00 1.7654040106942609e-01 0 0 0
305 1 1.7694336528263841e+00 8.3478191603166216e+00 1.9437373146778891e+00 0 1 0
27 1 4.2751942778807033e+00 1.1343741978565928e+01 1.7579822310621454e+00 0 0 0
326 1 5.7394496378998738e+00 9.8929433089212964e+00 3.6409624929014677e+00 0 0 0
14 1 9.1331623155766035e+00 1.0086237631896411e+01 8.5592109764112828e-02 0 0 0
307 1 7.6645541676417910e+00 8.4869670954286960e+00 1.9402078683049537e+00 0 1 0
29 1 1.0609280443882419e+01 1.1640673689462107e+01 1.7138313779691337e+00 0 0 0
121 1 1.2684191832204338e+01 1.0204386655406390e+01 3.3483783878235118e+00 0 0 0
375 1 1.4174402408543751e+01 8.3581640361555429e+00 1.6980798296416428e+00 0 1 0
31 1 1.4162949395666111e+00 1.4736689389423869e+01 1.6565887678839348e+00 0 0 0
26 1 3.0890440384085180e+00 1.3453085668914625e+01 3.5111860229215321e+00 0 0 0
4 1 5.8582014622395313e+00 1.2909220364304979e+01 3.7458426137704404e-01 0 0 0
33 1 7.2739725435699372e+00 1.4541374897554395e+01 2.0313279427301789e+00 0 0 0
30 1 8.8435738500640060e+00 1.3165389741561636e+01 3.3196813297266377e+00 0 0 0
62 1 1.2108148750048745e+01 1.3278260783774565e+01 4.7621129652137006e-01 0 0 0
108 1 1.3673633229813644e+01 1.4548021941439975e+01 2.1958810531112083e+00 0 0 0
106 1 1.5629273995567468e+01 1.3022845795160423e+01 3.0490933102556470e+00 0 0 0
319 1 2.6902474774084628e-01 4.9925833951525522e-01 6.3780604384718389e+00 0 1 0
1518 1 8.7929493751404048e-02 2.5791513086111526e+00 3.9603296635111223e+00 2 1 0
273 1 3.3308425359081077e+00 3.3567505256842995e+00 6.3207151762768783e+00 0 1 0
312 1 4.9085677730033117e+00 1.6530270592995338e+00 5.2052210336025500e+00 0 1 0
304 1 9.4018177014370998e+00 3.5122841348608111e+00 6.5873901029871744e+00 0 1 0
311 1 6.7075959418282665e+00 2.2237389146785136e-02 6.8804257874831229e+00 0 1 0
287 1 1.1217945448767161e+01 2.0277113734185823e+00 4.7892517511183001e+00 0 1 0
322 1 1.2377015657696610e+01 7.8609430000501157e-01 6.6606524435014229e+00 0 1 0
379 1 1.5407043178257863e+01 3.6686060958234772e+00 6.5375106626178727e+00 0 1 0
282 1 1.6805837747112853e+00 4.9037453411474496e+00 5.0034240685697915e+00 0 1 0
281 1 2.8234589702982232e-01 6.4762255229665193e+00 6.7400576679162389e+00 0 1 0
276 1 6.6026406329700098e+00 6.4741918335965973e+00 6.2543449804684261e+00 0 1 0
294 1 8.3528072456189157e+00 5.1783464557977732e+00 4.7288259198433744e+00 0 1 0
285 1 1.2267026228285303e+01 6.6802170632990903e+00 6.6161134994732036e+00 0 1 0
380 1 1.4099162103802215e+01 5.2895477326405693e+00 5.1100563759146933e+00 0 1 0
325 1 3.0515123899231296e+00 9.8780651033365050e+00 6.5857629758678451e+00 0 0 0
45 1 1.5474784763315790e+00 1.1653331304578654e+01 5.0817020241101769e+00 0 0 0
270 1 4.5140864840398098e+00 7.9031713389743681e+00 4.7100045727824442e+00 0 1 0
18 1 9.5600780895277779e+00 1.0089620909087611e+01 6.5363119994756582e+00 0 0 0
47 1 7.7685732381658390e+00 1.1432020788003689e+01 5.0726216923376075e+00 0 0 0
268 1 1.0934982054197127e+01 8.3800760063606123e+00 5.2546765041814618e+00 0 1 0
100 1 1.5385371404849900e+01 1.0051503833236186e+01 6.5257555335652997e+00 0 0 0
113 1 1.4091169274396243e+01 1.1566506000487658e+01 4.8826816641313568e+00 0 0 0
923 1 2.0024996468321146e-01 1.3044826718075186e+01 6.1868701648335138e+00 2 2 2
52 1 4.7576341959636004e+00 1.4477641062561688e+01 5.0305777786654016e+00 0 0 0
48 1 6.3761590575634166e+00 1.3061195359485932e+01 6.7216632784972372e+00 0 0 0
54 1 1.0669778516095002e+01 1.4700258604991376e+01 4.9437654826418642e+00 0 0 0
24 1 1.2412643763974883e+01 1.3190123534633939e+01 6.4682673473831631e+00 0 0 0
342 1 1.6921688627069176e+00 2.0134670909255998e+00 8.0371935536662420e+00 0 1 0
335 1 2.8455632265815423e+00 6.1350522899894462e-02 9.2580544514013638e+00 0 1 0
341 1 6.4191047438458808e+00 3.3611787507509772e+00 9.7174472568416466e+00 0 1 0
350 1 4.4814912644015052e+00 2.0061162113473499e+00 1.0792373729279499e+01 0 1 0
337 1 8.2628939288287455e+00 2.1114402265066703e+00 8.3492013202871487e+00 0 1 0
338 1 9.3525692336509216e+00 2.7774091293966885e-01 9.9451461533084302e+00 0 1 0
392 1 1.2558764500695982e+01 3.7353040200915597e+00 9.6948499045337453e+00 0 1 0
353 1 1.1011063873841657e+01 2.2128701503596910e+00 1.1188494252786334e+01 0 1 0
383 1 1.3990187851925695e+01 2.3264457837271029e+00 8.0653555025979973e+00 0 1 0
385 1 1.5551234315707829e+01 7.7738312654980934e-01 9.3743067928000841e+00 0 1 0
344 1 3.1895315705566825e+00 6.7420776079424440e+00 9.4743700199355896e+00 0 1 0
351 1 1.5287321061439678e+00 5.3490133724768949e+00 1.1126117576804821e+01 0 1 0
330 1 4.8063854914729882e+00 5.2184061481942372e+00 7.9430416685257788e+00 0 1 0
347 1 8.9764208298425068e+00 6.5560917823111247e+00 9.5124663123061541e+00 0 1 0
352 1 7.7133167821068822e+00 4.8757484873730785e+00 1.1515772068226813e+01 0 1 0
343 1 1.0656457058081376e+01 5.1090431508926049e+00 8.4364996271265333e+00 0 1 0
388 1 1.5554507486536679e+01 7.0579783533483393e+00 9.4936829238692120e+00 0 1 0
390 1 1.3904091084212144e+01 5.3657139112471040e+00 1.1171021937854430e+01 0 1 0
339 1 1.5193172099704626e+00 8.3322492892186286e+00 8.2950190711918310e+00 0 1 0
359 1 2.2543465432585624e-01 9.7686041485836537e+00 9.6333716444535327e+00 0 0 0
84 1 1.6716906787547483e+00 1.1537510679526552e+01 1.1065438436445643e+01 0 0 0
332 1 6.2673533622524156e+00 9.7223781600726866e+00 9.5792929999652774e+00 0 0 0
67 1 4.7504041409676487e+00 1.1407275476808246e+01 8.0944599475146486e+00 0 0 0
346 1 4.6807808996969742e+00 8.3180140393913469e+00 1.1035116589330183e+01 0 1 0
356 1 7.7748213891815379e+00 8.2482228173001051e+00 8.0539205479497475e+00 0 1 0
68 1 7.8310506762748409e+00 1.1428916668820024e+01 1.1236657296351085e+01 0 0 0
94 1 1.2407320545758315e+01 1.0027711628340647e+01 9.3641921940349295e+00 0 0 0
355 1 1.0764517267625735e+01 8.6430721211311443e+00 1.1052634271690779e+01 0 1 0
126 1 1.3830009177247328e+01 1.1502190220108456e+01 1.1262700991564376e+01 0 0 0
387 1 1.3865831936449748e+01 8.2857913803897798e+00 8.0438305533683785e+00 0 1 0
70 1 1.7313114450843752e+00 1.4445101866969049e+01 7.8475903904293087e+00 0 0 0
66 1 3.2733245984003094e+00 1.3134204458446353e+01 9.4868929492044014e+00 0 0 0
72 1 4.7515282694832504e+00 1.4173366031821457e+01 1.1254373286731701e+01 0 0 0
73 1 7.7957160829912233e+00 1.4594293933519365e+01 8.1125794617666784e+00 0 0 0
69 1 9.4177371305412958e+00 1.3020407958761940e+01 9.7649812344654912e+00 0 0 0
93 1 1.0854461276301906e+01 1.1768310825226733e+01 8.1675690097217704e+00 0 0 0
87 1 1.0768318072803995e+01 1.4929601535850765e+01 1.0877864707086973e+01 0 0 0
123 1 1.4035488342693808e+01 1.4842495366033811e+01 7.9635955138826491e+00 0 0 0
122 1 1.5486309962738241e+01 1.2611697308943851e+01 9.3557651664800705e+00 0 0 0
404 1 1.4335731635633879e+00 2.3654404597502379e+00 1.4509196625874704e+01 0 1 0
405 1 3.2255453171215400e+00 3.6650957418183059e+00 1.2779690352319395e+01 0 1 0
430 1 2.7014855789601531e-02 4.9612077007912786e-01 1.2964135136933342e+01 0 1 0
401 1 6.1394443443675959e+00 5.1305785880500532e-01 1.2844344295508982e+01 0 1 0
406 1 7.6775348876183127e+00 2.4619735289959506e+00 1.4014935125822948e+01 0 1 0
362 1 1.2405745975934110e+01 5.5305727441420316e-01 1.2766401563363717e+01 0 1 0
494 1 1.4058000164756589e+01 2.1113926279849640e+00 1.4237458770771337e+01 0 1 0
391 1 1.5334337834064325e+01 3.5379728579750891e+00 1.2763635880194675e+01 0 1 0
354 1 6.0886858861189124e+00 6.6432785281216766e+00 1.2622184734250830e+01 0 1 0
407 1 4.6556913868764633e+00 5.2542087876806383e+00 1.4356170457767488e+01 0 1 0
409 1 9.7445789963073306e+00 3.9924913600385721e+00 1.2778478211317815e+01 0 1 0
408 1 1.1251488988882350e+01 5.8358620634269363e+00 1.4382956061273767e+01 0 1 0
393 1 1.2541169078396523e+01 7.0415614399766691e+00 1.2565388789800416e+01 0 1 0
496 1 1.6452009803642994e+01 5.3160585466337862e+00 1.4636413678207116e+01 0 1 0
357 1 2.9947574970264141e+00 9.7929256609294200e+00 1.2709484015948771e+01 0 0 0
395 1 1.7006720285896992e+00 8.3810492317428924e+00 1.4567637732810510e+01 0 1 0
139 1 4.3807557769284626e+00 1.1267426292587452e+01 1.4524108989628312e+01 0 0 0
412 1 7.7789708441970395e+00 8.2571640922649134e+00 1.4472914649849427e+01 0 1 0
427 1 9.2594777415289720e+00 9.8647077746055150e+00 1.2814461448889160e+01 0 0 0
140 1 1.0660901221677644e+01 1.1612638996541801e+01 1.4505872092079473e+01 0 0 0
497 1 1.3784463359787649e+01 8.8775893728399620e+00 1.4279290862449146e+01 0 1 0
495 1 1.5720899830428882e+01 9.8588318116074234e+00 1.2972737810322219e+01 0 0 0
143 1 1.3580703001837486e+00 1.4420473356439821e+01 1.4106706233513913e+01 0 0 0
138 1 6.3165857812590156e+00 1.2745610162784907e+01 1.3125431007592427e+01 0 0 0
144 1 7.6874838505849148e+00 1.4572427518612740e+01 1.4552091793196631e+01 0 0 0
167 1 1.2287368198852453e+01 1.3085179625602905e+01 1.2773542923860019e+01 0 0 0
233 1 1.3991718265926757e+01 1.4292925862653448e+01 1.4682874142791553e+01 0 0 0
419 1 2.9798911005137083e+00 4.3821880128500557e-01 1.6178992322629547e+01 0 1 0
423 1 4.3973032943411932e+00 2.0762594318263012e+00 1.7510708528076030e+01 0 1 0
410 1 6.1875686129333829e+00 3.5359866749941165e+00 1.5707446848588972e+01 0 1 0
441 1 6.1865509334987854e+00 4.8706548211077050e-01 1.8857791015836618e+01 0 1 0
422 1 9.2987440088350191e+00 9.9670957023643814e-01 1.5780044264180528e+01 0 1 0
446 1 9.3577800777855646e+00 3.3620637392565405e+00 1.9403425485802622e+01 0 1 0
396 1 1.0707015708260393e+01 2.0159576279401046e+00 1.7629482295283474e+01 0 1 0
431 1 1.2434830358428263e+01 3.9056023418227550e+00 1.6032790531034131e+01 0 1 0
509 1 1.2789315745641296e+01 3.3332051123961648e-01 1.8696464090519932e+01 0 1 0
499 1 1.5622242367611246e+01 3.3272713111372204e-01 1.5762256229817922e+01 0 1 0
507 1 1.5828710708492693e+01 3.7804938916784065e+00 1.8751804715907177e+01 0 1 0
400 1 1.3520213409913597e+00 5.4926927657091760e+00 1.7531990766942656e+01 0 1 0
444 1 2.9493992110221763e+00 4.0116562092741850e+00 1.9304350171305408e+01 0 1 0
397 1 3.5031938296132323e+00 7.0323150202156857e+00 1.6133510101029472e+01 0 1 0
449 1 6.5935200998629657e+00 6.5818827572310505e+00 1.8957587921320112e+01 0 1 0
411 1 9.0839712471372618e+00 6.8681816918047556e+00 1.6401316373603784e+01 0 1 0
420 1 7.7908656202995683e+00 4.6682661963375320e+00 1.7647868483361322e+01 0 1 0
474 1 1.2281604456203137e+01 6.6959565104626080e+00 1.8744649170090106e+01 0 1 0
498 1 1.4228070899478693e+01 5.5597422160940617e+00 1.7481737814537674e+01 0 1 0
501 1 1.5653485055573906e+01 7.5365353888994218e+00 1.6023211747395628e+01 0 1 0
165 1 1.7408379944536140e-01 9.9242407418263952e+00 1.5943612564150227e+01 0 0 0
134 1 1.5938218255853791e+00 1.1378197533680476e+01 1.7620120229675585e+01 0 0 0
226 1 3.2542348006552855e+00 9.9639972868885209e+00 1.9347855514404834e+01 0 0 0
161 1 6.4710320765517775e+00 9.9083316222941438e+00 1.6151402118567624e+01 0 0 0
432 1 4.9670949578800254e+00 8.7102037438980773e+00 1.7877499067055041e+01 0 1 0
224 1 9.5323522521224184e+00 1.0147676568872152e+01 1.9011878179983995e+01 0 0 0
168 1 1.2483243518493582e+01 1.0225637792923820e+01 1.5811679572967995e+01 0 0 0
413 1 1.1094066622110827e+01 8.6055474602059956e+00 1.7361705071793111e+01 0 1 0
232 1 1.4266729137310737e+01 1.1090105878437939e+01 1.7508117548038939e+01 0 0 0
510 1 1.5403867742607849e+01 9.5709723819592210e+00 1.9333226484306273e+01 0 0 0
154 1 2.9370548485172163e+00 1.3056315606924784e+01 1.5841357518279317e+01 0 0 0
227 1 3.3830240364416848e-02 1.3228176702951593e+01 1.8758859765856414e+01 0 0 0
132 1 4.7469339052576691e+00 1.4830000425964284e+01 1.7415736836970176e+01 0 0 0
171 1 5.9907503511450084e+00 1.3130018552655207e+01 1.9192918943770053e+01 0 0 0
156 1 9.3213918721728728e+00 1.3391861705286720e+01 1.6117589802230526e+01 0 0 0
155 1 7.7398156883710909e+00 1.1807791318238642e+01 1.7686988760703230e+01 0 0 0
137 1 1.1291527626440724e+01 1.4716063381408780e+01 1.7439008342694358e+01 0 0 0
247 1 1.2735256344658927e+01 1.2962302541988681e+01 1.8605680727916656e+01 0 0 0
237 1 1.5894714474401363e+01 1.2774807132038910e+01 1.6005404666998786e+01 0 0 0
439 1 1.5023749174238006e+00 2.3058989424522069e+00 2.0736165790141847e+01 0 1 0
456 1 2.8967153575424058e+00 5.4485414040701274e-01 2.2072021316791265e+01 0 1 0
464 1 6.2392030556219211e+00 3.5056413430940925e+00 2.2585787938673192e+01 0 1 0
442 1 7.4492280977378815e+00 1.7030941024315431e+00 2.0848360410286737e+01 0 1 0
459 1 9.4100333086732881e+00 3.7958916492999506e-01 2.2161841490013117e+01 0 1 0
520 1 1.2609833401214935e+01 3.5061577630178946e+00 2.1990790522974464e+01 0 1 0
505 1 1.4142840277835532e+01 2.1085944959248115e+00 2.0397176915369911e+01 0 1 0
511 1 1.5918515659145566e+01 5.1577947933759827e-01 2.1656348227728486e+01 0 1 0
466 1 3.0616955113190980e+00 6.9426048089236199e+00 2.2364534810705294e+01 0 1 0
841 1 1.0658688844108274e-01 4.3885180483077644e+00 2.1671944508029632e+01 2 -2 -3
445 1 4.4314848965959364e+00 5.2061061078458497e+00 2.1165479536503412e+01 0 1 0
468 1 9.3177723395439589e+00 7.0023423374177147e+00 2.2014749003235515e+01 0 1 0
447 1 1.0774242469235865e+01 5.2084989987646448e+00 2.0465748789313075e+01 0 1 0
514 1 1.5441984738122242e+01 6.6089863498736525e+00 2.1836108689761822e+01 0 1 0
448 1 1.4378337261073553e+00 8.3145252433607926e+00 2.0728457717223442e+01 0 1 0
172 1 4.9444357524940497e+00 1.1309130161051147e+01 2.0695973179537546e+01 0 0 0
436 1 6.4005086361540746e+00 9.8151157291808921e+00 2.2335075444811643e+01 0 0 0
450 1 7.8535343595546898e+00 8.6526345205407349e+00 2.0463912171882704e+01 0 1 0
261 1 1.2798507503670185e+01 1.0025875530089330e+01 2.2115087304844160e+01 0 0 0
508 1 1.3895258654175779e+01 8.1440493899271029e+00 2.0596628656574907e+01 0 1 0
176 1 1.6229007031797682e+00 1.4415222689458673e+01 2.0366385366878866e+01 0 0 0
191 1 3.1840144488079969e+00 1.3093375274115802e+01 2.2349297622126755e+01 0 0 0
178 1 7.8554514358787939e+00 1.4716156598449540e+01 2.0763424834909983e+01 0 0 0
195 1 9.4868028808247438e+00 1.3253774218163924e+01 2.2187111541969323e+01 0 0 0
174 1 1.0886177721407972e+01 1.1873244453702389e+01 2.0396802222327587e+01 0 0 0
243 1 1.4240022446664801e+01 1.4349659377112880e+01 2.0266954451829072e+01 0 0 0
248 1 1.5718581875104730e+01 1.2741473343301337e+01 2.1953303586454879e+01 0 0 0
484 1 3.1861698662321269e+00 3.7284360865292321e+00 2.5287003292624185e+01 0 1 0
479 1 1.5871172329875101e+00 2.2231267569853501e+00 2.7124006377418844e+01 0 1 0
463 1 4.4958726184745332e+00 2.1303059585374400e+00 2.3666036456335917e+01 0 1 0
482 1 6.4053712693277713e+00 6.4514287004855830e-01 2.5131503400807624e+01 0 1 0
451 1 9.1116015658225535e+00 3.6839012110281475e+00 2.5127085474894976e+01 0 1 0
485 1 7.7356599517660527e+00 2.2719291862275326e+00 2.6720593310568105e+01 0 1 0
460 1 1.0826355699241681e+01 2.0722839901642063e+00 2.3676372439487096e+01 0 1 0
523 1 1.3071511719829964e+01 5.3828799398474192e-01 2.4975837096186716e+01 0 1 0
518 1 1.5738166719342450e+01 3.9138665904505063e+00 2.5438443757535225e+01 0 1 0
517 1 1.4296525696342499e+01 2.1351608743004875e+00 2.6811352759781464e+01 0 1 0
461 1 1.5078669479568700e+00 5.4102887037858256e+00 2.4087956788565698e+01 0 1 0
462 1 6.3896779340013504e-02 7.1624989748435368e+00 2.5427626269096265e+01 0 1 0
476 1 6.3343691588397233e+00 7.2171463176340653e+00 2.5269993597156436e+01 0 1 0
486 1 4.7895346232346565e+00 5.0676349389564876e+00 2.6526328415140142e+01 0 1 0
465 1 7.9037866226443354e+00 5.5409116345775056e+00 2.3843481655725135e+01 0 1 0
521 1 1.2494242953288719e+01 6.6133328175830082e+00 2.5397062082792473e+01 0 1 0
480 1 1.0957567765429269e+01 5.2051897752594734e+00 2.6849989530859993e+01 0 1 0
513 1 1.4016434086700100e+01 5.0807672254333074e+00 2.3865378183976510e+01 0 1 0
222 1 3.3284789483049466e+00 1.0013139719705682e+01 2.5290174466811820e+01 0 0 0
192 1 1.5870965904423395e+00 1.1249297220088874e+01 2.3783324197463074e+01 0 0 0
472 1 1.6087960490946605e+00 8.5206644246672205e+00 2.6865986115438723e+01 0 1 0
467 1 4.6327407930196092e+00 8.5485212225886649e+00 2.3923849079764949e+01 0 1 0
181 1 9.3398201525942497e+00 1.0270060516082694e+01 2.5004934818060669e+01 0 0 0
473 1 8.1774470313642542e+00 8.6938684616159065e+00 2.6729855788440318e+01 0 1 0
469 1 1.1313944425212723e+01 8.5166400244437099e+00 2.3793886719617880e+01 0 1 0
218 1 1.0878658045479122e+01 1.1478269538133095e+01 2.6853147000908685e+01 0 0 0
522 1 1.5618372908316664e+01 9.7855057273749999e+00 2.5542592240571224e+01 0 0 0
249 1 1.4132037685599780e+01 1.1557364283700265e+01 2.3875767137242285e+01 0 0 0
506 1 1.3758933289199510e+01 8.0088428073128703e+00 2.7121782908404050e+01 0 1 0
221 1 1.0740895622815445e+00 1.4630827813970186e+01 2.6734452378641265e+01 0 0 0
215 1 6.4357181233923475e+00 1.3731922267085489e+01 2.5421366959958732e+01 0 0 0
196 1 5.0384713034284312e+00 1.5130757386319075e+01 2.3643079991344379e+01 0 0 0
216 1 4.7288539941756564e+00 1.1865500903069089e+01 2.6688513206370153e+01 0 0 0
193 1 7.7295529575571402e+00 1.2060221242039427e+01 2.3552217377556218e+01 0 0 0
219 1 8.0305137982990473e+00 1.4857920461133073e+01 2.7318431757645726e+01 0 0 0
206 1 1.2344902114453568e+01 1.3156048143795223e+01 2.5498413415500018e+01 0 0 0
198 1 1.0894598632612238e+01 1.4821802565993785e+01 2.3775558620256739e+01 0 0 0
255 1 1.4236797658479434e+01 1.4470317075065482e+01 2.6980568059279520e+01 0 0 0
288 1 3.1307708927907680e+00 6.3822252686495717e-01 2.8634509081754743e+01 0 1 -1
277 1 5.0428088800724620e+00 2.2503238633852249e+00 3.0055441717612837e+01 0 1 -1
492 1 9.3219983727249787e+00 1.0073153623107822e-01 2.8243028856723697e+01 0 1 -1
279 1 1.1205869353418780e+01 1.9484328919726590e+00 2.9849634552465645e+01 0 1 -1
372 1 1.2719470996343079e+01 3.6931097562358719e+00 2.8395662912074286e+01 0 1 -1
369 1 1.5719210887898479e+01 7.8122890994233418e-01 2.8641566494211972e+01 0 1 -1
438 1 3.2601058093933881e+00 6.6706279660183085e+00 2.8102948036574475e+01 0 1 -1
274 1 1.8877323612566688e+00 5.6560949702286178e+00 2.9850353180251624e+01 0 1 -1
265 1 3.4612486902065354e-01 7.1811122978811266e+00 3.1252276689295904e+01 0 1 -1
487 1 6.3486178829088988e+00 3.9763875011374035e+00 2.8340325322007573e+01 0 1 -1
278 1 8.0342957397021362e+00 5.2122098658441187e+00 2.9857576543236078e+01 0 1 -1
491 1 9.4988759465903065e+00 6.7117846083378563e+00 2.8122750910964172e+01 0 1 -1
367 1 1.4146943925082658e+01 5.2134011784170182e+00 3.0136279349632808e+01 0 1 -1
370 1 1.5562194289709886e+01 7.0483672113332352e+00 2.8659557401965671e+01 0 1 -1
1 1 1.4620641106615873e+00 1.1520242603654339e+01 3.0037670198585708e+01 0 0 -1
1185 1 2.0127642495908568e-01 1.0040459121797550e+01 2.8530308383761060e+01 0 1 -3
228 1 6.2275688049722131e+00 1.0111321523503220e+01 2.8216855256690053e+01 0 0 -1
283 1 4.9561573521139959e+00 8.0360784480841243e+00 2.9668331255120236e+01 0 1 -1
286 1 1.0702258389181729e+01 8.3601188610185311e+00 2.9906471660683941e+01 0 1 -1
315 1 1.2244302778073717e+01 9.7593676190977039e+00 2.8416100154449431e+01 0 0 -1
99 1 1.3510903075966743e+01 1.1387324199968178e+01 3.0305255731523403e+01 0 0 -1
107 1 1.5558760221329592e+01 9.9487952301363336e+00 3.1030046878491873e+01 0 0 -1
65 1 2.8157869734092555e+00 1.3147907633246870e+01 2.8445749868775920e+01 0 0 -1
8 1 4.6424393234694294e+00 1.4512393742012184e+01 2.9851649763439944e+01 0 0 -1
3 1 7.7798194663591431e+00 1.1794611731997298e+01 2.9988366372603195e+01 0 0 -1
230 1 9.2906831454893855e+00 1.3024203579960322e+01 2.8292849648258574e+01 0 0 -1
10 1 1.0685062467726482e+01 1.4312737001282555e+01 3.0026741749644330e+01 0 0 -1
116 1 1.5447947406306618e+01 1.2914108061660587e+01 2.8668536509753245e+01 0 0 -1
7 1 3.0670411923189320e+00 1.6314389221797320e+01 1.5498315677040725e-01 0 0 0
9 1 1.4350339628029901e-01 1.9495898789277753e+01 4.1646988505254362e-01 0 0 0
38 1 3.2315164412334583e+00 1.9487542576955740e+01 3.5127411968795226e+00 0 0 0
36 1 4.7076830471760642e+00 1.7762521807258842e+01 1.9766275738215549e+00 0 0 0
32 1 5.8202377683235493e+00 1.6194040578237050e+01 3.6990812065160674e+00 0 0 0
11 1 8.5777971482098767e+00 1.6157048821224848e+01 3.2860075029571317e-01 0 0 0
40 1 9.2700708311886686e+00 1.9261293446356007e+01 3.5405416274674995e+00 0 0 0
34 1 1.0438151453236195e+01 1.7737431065167634e+01 1.7762809391345018e+00 0 0 0
56 1 1.2412649897221124e+01 1.9391273544684758e+01 4.0780205917910445e-01 0 0 0
58 1 1.2208274221577453e+01 1.6362034978454510e+01 3.5705960959573200e+00 0 0 0
101 1 1.5662824418485590e+01 1.6158408377155894e+01 7.2087754479270272e-01 0 0 0
110 1 1.5584044674245012e+01 1.9250845041561803e+01 3.7309342821477633e+00 0 0 0
37 1 1.4831874361772157e+00 2.0962072751688147e+01 2.2261503194425476e+00 0 0 0
16 1 5.9300678924931223e+00 1.9590443603903850e+01 6.0933573993853551e-01 0 0 0
42 1 6.1939749781333875e+00 2.2548121521060089e+01 3.3999950134519801e+00 0 0 0
25 1 9.1869221666156697e+00 2.2250470773916710e+01 6.8388439421916969e-01 0 0 0
39 1 7.7042644551605131e+00 2.0831255993418608e+01 2.3070863506872130e+00 0 0 0
60 1 1.2458704703297927e+01 2.2242255720963051e+01 3.3791500749673999e+00 0 0 0
104 1 1.5816169801996216e+01 2.2215496574828734e+01 6.3165841958695856e-01 0 0 0
109 1 1.4366191681096520e+01 2.0736439010797675e+01 1.9369268001129289e+00 0 0 0
289 1 1.8055808123427333e+00 2.6883015093461246e+01 1.4215784366727642e+00 0 0 0
320 1 2.9796783223767527e+00 2.5730260724751567e+01 3.4697484077755920e+00 0 0 0
57 1 6.2710951184018553e+00 2.5338774852231779e+01 3.0270949251556184e-01 0 0 0
41 1 4.5376492478642447e+00 2.3793269060466947e+01 1.8425923426540569e+00 0 0 0
292 1 7.6651445087604371e+00 2.6573696521159597e+01 2.1431514504321432e+00 0 0 0
5 1 9.4387276107258806e+00 2.5467247501611901e+01 3.6687494608169353e+00 0 0 0
382 1 1.2614999973774824e+01 2.5593608415218000e+01 4.7430638386249041e-01 0 0 0
44 1 1.0846203668991405e+01 2.3831816659618269e+01 2.0216659230251421e+00 0 0 0
371 1 1.4196179112864554e+01 2.6828552641025112e+01 2.1729115761862223e+00 0 0 0
117 1 1.5823536218980648e+01 2.5012754056387074e+01 3.7484140791022322e+00 0 0 0
296 1 4.5555474217493135e+00 3.0112472304752551e+01 1.7743041115945779e+00 0 0 0
293 1 6.2266901366662530e+00 2.8574136156686571e+01 3.3469481374750134e+00 0 0 0
267 1 9.4999175827816131e+00 2.8311419867413946e+01 6.1442770375250999e-01 0 0 0
298 1 1.0984596480527081e+01 3.0134051030335804e+01 2.1078271711634597e+00 0 0 0
291 1 1.2440876884036427e+01 2.8484902960861220e+01 3.4144115483649862e+00 0 0 0
364 1 1.5585940553306788e+01 2.8614961545649329e+01 3.4492682621098647e-01 0 0 0
50 1 1.8929613901766222e+00 1.7645140788608870e+01 4.9944312959334640e+00 0 0 0
51 1 3.5152783204788856e+00 1.6120547179175155e+01 6.5853398241754517e+00 0 0 0
46 1 7.5489143686252573e+00 1.7488304218477573e+01 5.1225623796698230e+00 0 0 0
53 1 9.2303590144058703e+00 1.6014861557482991e+01 6.5713493297208139e+00 0 0 0
120 1 1.2508604553570168e+01 1.9366774342424058e+01 6.4002642105429768e+00 0 0 0
115 1 1.4219622129501015e+01 1.7423651343248451e+01 4.7641102887953819e+00 0 0 0
114 1 1.5771076418510180e+01 1.6378174594029474e+01 6.5387100707964985e+00 0 0 0
28 1 3.1725076094819000e+00 2.2312860219402019e+01 6.5802674148726608e+00 0 0 0
49 1 4.8218755707678698e+00 2.0987717549333262e+01 5.0950248619189411e+00 0 0 0
55 1 6.3307538550677300e+00 1.9601498362460241e+01 6.7078340253374442e+00 0 0 0
6 1 9.4126846491654756e+00 2.2487969926187510e+01 6.6162777994341893e+00 0 0 0
35 1 1.0812409129986149e+01 2.0852256331034276e+01 4.9741871771638095e+00 0 0 0
112 1 1.5325214814654245e+01 2.2650478373337329e+01 6.6303995123789949e+00 0 0 0
43 1 1.7355290781797241e+00 2.3928985028453162e+01 5.2103818233860117e+00 0 0 0
922 1 3.5982897210919212e-02 2.4704370876833373e+01 7.0106076077950190e+00 1 1 -4
61 1 6.4855330414299610e+00 2.5444839496655767e+01 6.7232539677300762e+00 0 0 0
310 1 4.7908222528020303e+00 2.7062073753266766e+01 5.1874612071764359e+00 0 0 0
22 1 7.8995058320731593e+00 2.3899146417432945e+01 5.0753423850643804e+00 0 0 0
313 1 1.1151939160746039e+01 2.6949319692656772e+01 4.8538355930955044e+00 0 0 0
318 1 1.2315641796856019e+01 2.5731675840842854e+01 6.8463623554418058e+00 0 0 0
111 1 1.3734440794866483e+01 2.4151880327719560e+01 5.0807271440194288e+00 0 0 0
316 1 1.2442355652899109e+00 2.9923481357836053e+01 4.6080790859710596e+00 0 0 0
309 1 2.9659050266289211e+00 2.8803938428297855e+01 6.4312654819258714e+00 0 0 0
317 1 7.9105729900654440e+00 2.9627085657107699e+01 5.0261825140890091e+00 0 0 0
314 1 9.8323679845572247e+00 2.8540949881198586e+01 6.3687161256713001e+00 0 0 0
329 1 7.9478990504401850e+00 2.7395816370396389e+01 7.8075614832603879e+00 0 0 0
378 1 1.4084548903051527e+01 3.0420690642060073e+01 5.1319565797708036e+00 0 0 0
377 1 1.5560174803252872e+01 2.8454960364080193e+01 6.4661749831336071e+00 0 0 0
98 1 2.0198970895655763e-01 1.5952367332800014e+01 9.5420325059474536e+00 0 0 0
86 1 1.5610360671802004e+00 1.7567253948613711e+01 1.1252006490018108e+01 0 0 0
76 1 4.5649988288363321e+00 1.8096539192664146e+01 8.1519615254172972e+00 0 0 0
71 1 6.2983503415665387e+00 1.6399255626778128e+01 9.7714563900031166e+00 0 0 0
78 1 9.3875676508361945e+00 1.9367471642132600e+01 9.8487596378165314e+00 0 0 0
89 1 7.9996939028131804e+00 1.7658213126470578e+01 1.1311150495816994e+01 0 0 0
80 1 1.0637949702397886e+01 1.7770424382855083e+01 7.9131216746314408e+00 0 0 0
131 1 1.2569869543286140e+01 1.6577615520932184e+01 9.4385820943695347e+00 0 0 0
124 1 1.5675422470632832e+01 1.9368258429428778e+01 9.5074235625760881e+00 0 0 0
128 1 1.4205946094954340e+01 1.7797612266099229e+01 1.1188309647908765e+01 0 0 0
74 1 1.3334875692695283e+00 2.0902351818080902e+01 8.1036868104521922e+00 0 0 0
75 1 2.7472248965704207e+00 1.9608810052325943e+01 9.8787676737100227e+00 0 0 0
81 1 5.9169009804654271e+00 2.2741065073177403e+01 9.8368798480035888e+00 0 0 0
88 1 4.5001471229339396e+00 2.1255523288958386e+01 1.1543514068856625e+01 0 0 0
77 1 7.7206377934651167e+00 2.1213551944199857e+01 8.3895180811165293e+00 0 0 0
130 1 1.3036255124772103e+01 2.2115818743994275e+01 9.8458408497319851e+00 0 0 0
79 1 1.1024853242239057e+01 2.0703896492063542e+01 1.1203554806682485e+01 0 0 0
129 1 1.4364441439805599e+01 2.0696131233754066e+01 7.8735466268661236e+00 0 0 0
361 1 3.1637564044259072e+00 2.5531323182243263e+01 9.5568568420376145e+00 0 0 0
328 1 1.2970462604186406e+00 2.7021701710674989e+01 8.0460822884469270e+00 0 0 0
91 1 1.2921504997940521e+00 2.4036528402012536e+01 1.0912353459572108e+01 0 0 0
82 1 4.4278002384920052e+00 2.3954395274521204e+01 8.2987855320609221e+00 0 0 0
333 1 4.5349300847519958e+00 2.7248966565262812e+01 1.1145970728141517e+01 0 0 0
363 1 9.0796384787989215e+00 2.5704317103518129e+01 9.6330053930176227e+00 0 0 0
92 1 7.7972994358648284e+00 2.3954180215936134e+01 1.1541971373024836e+01 0 0 0
83 1 1.1058042292774674e+01 2.3939228607415259e+01 8.5824928456178728e+00 0 0 0
334 1 1.0765302298613394e+01 2.6921645043204812e+01 1.1024432511024502e+01 0 0 0
394 1 1.5807803047208594e+01 2.5733981213387821e+01 9.9083235888943353e+00 0 0 0
384 1 1.4055328709624947e+01 2.7144968086378299e+01 8.3722879756899520e+00 0 0 0
125 1 1.4321126970980460e+01 2.4003991504922574e+01 1.1424650236853925e+01 0 0 0
349 1 1.4926621727393263e+00 3.0071277660151338e+01 1.1341140848127452e+01 0 0 0
345 1 4.7479293395963724e+00 2.9739909341367508e+01 8.1197979861369234e+00 0 0 0
331 1 6.3360829658938380e+00 2.8431541676972131e+01 9.6200983209646100e+00 0 0 0
336 1 7.5764540018485738e+00 2.9924352747041723e+01 1.1338316383309271e+01 0 0 0
340 1 1.0893997344891469e+01 3.0395080977747881e+01 7.9242110662809999e+00 0 0 0
360 1 1.2365628798421108e+01 2.8718438179586556e+01 9.6431940788688735e+00 0 0 0
386 1 1.4067164363454467e+01 3.0395451285845077e+01 1.0895342695469591e+01 0 0 0
95 1 5.2310667272811273e-01 1.9483370735108323e+01 1.2748217342578648e+01 0 0 0
85 1 3.2864271309468553e+00 1.5649900189884372e+01 1.2653210366614397e+01 0 0 0
145 1 4.4863278458796767e+00 1.7483658122708384e+01 1.4244470204459772e+01 0 0 0