LAMMPS data file via write_data, version 12 Dec 2018, timestep = 100000

4096 atoms
1 atom types

1.1029689232492146e-01 4.9889703107673952e+01 xlo xhi
1.1029689232492146e-01 4.9889703107673952e+01 ylo yhi
1.1029689232492146e-01 4.9889703107673952e+01 zlo zhi

Masses

1 18.015

Atoms # atomic

364 1 6.6825142625435252e-01 2.7191136668964098e+00 3.0141972756653432e+00 1 0 0
117 1 2.1614816264444308e+00 1.0695994184512974e+00 7.8928563186058365e-01 1 0 0
2008 1 4.8190561677910102e+00 1.8881438678836844e+00 4.7963331638559414e-01 0 0 1
133 1 7.0609563829961761e+00 6.7824808867115116e-01 1.8207863584801702e+00 0 0 0
2321 1 1.0870656129108040e+01 3.6839395821067183e-01 3.1555595795432105e+00 0 1 0
14 1 1.4220247898170486e+01 1.6129993913943037e+00 2.5775396090441203e+00 0 0 0
201 1 1.3870283115373732e+01 3.1946253820625112e+00 2.7892837623842459e-01 0 0 0
371 1 1.6997296251729789e+01 5.3654011784191491e-01 1.0055835208490560e+00 0 0 0
195 1 1.7155820657031136e+01 2.9047857549641285e+00 3.0741449360193429e+00 0 0 0
214 1 1.9731822373422233e+01 1.9992295592679910e+00 3.1844699183812528e+00 0 0 0
346 1 2.3301495068568535e+01 3.8881593980773377e-01 1.4374867503360667e+00 0 0 0
188 1 2.3606759592306837e+01 3.0392442368431816e+00 9.5630119467312424e-01 0 0 0
327 1 2.9124627739672640e+01 2.5032566634475146e+00 1.8198854367450696e+00 0 0 0
390 1 3.1118379307532681e+01 6.6576702901618634e-01 1.1302557989401147e+00 0 0 0
1665 1 3.5925658652184296e+01 3.1026715467963148e+00 8.4368877035932133e-01 0 0 1
2022 1 3.8405203633120919e+01 2.3540735661419467e+00 1.8122574328940597e+00 0 0 1
354 1 3.7344608975321052e+01 2.8252991957307771e-01 3.2076290059688395e+00 0 0 0
2167 1 4.3269967572748655e+01 2.4736137557694948e+00 9.9297338482140396e-01 0 1 0
241 1 4.6839339676224228e+01 1.4705542329435028e-01 9.0533781206768393e-01 0 0 0
56 1 2.0299445901031419e+00 4.8040954136471559e+00 1.9776019009319246e+00 1 0 0
6 1 4.5896419051299597e+00 4.1676000288269082e+00 1.9748612119719640e+00 0 0 0
263 1 5.2573362354257478e+00 6.4334250751859416e+00 4.4885657143549362e-01 0 0 0
295 1 9.8695197690345573e+00 4.3176391352116141e+00 1.3856324731968859e+00 0 0 0
1686 1 9.2654032295819899e+00 7.1387456015979387e+00 1.6987018182077807e-01 0 0 1
1645 1 1.2484961173705859e+01 5.4817348707396807e+00 2.8087887386324017e-01 0 0 1
1820 1 1.6928132385359710e+01 6.7957215717480333e+00 6.2059764852808774e-01 0 0 1
63 1 1.7245146201884559e+01 5.7267415594028241e+00 3.0695772027153954e+00 0 0 0
419 1 2.1786080395906072e+01 3.8345930882689712e+00 2.6878467404462221e+00 0 0 0
253 1 2.1805799132597297e+01 6.3979600757458002e+00 3.0982984711449779e+00 0 0 0
72 1 2.5838777830615278e+01 4.0910438593278222e+00 1.8392681266513309e+00 0 0 0
166 1 2.5841393202543397e+01 6.7564619642274133e+00 2.4132420197570545e+00 0 0 0
112 1 2.9902272964656042e+01 4.6722955962768760e+00 3.2218817904583186e+00 0 0 0
94 1 3.1936313702835342e+01 5.3753665656893492e+00 1.6387337409350426e+00 0 0 0
261 1 3.4241999761971144e+01 4.3105417682880693e+00 2.6374934532109755e+00 0 0 0
353 1 4.0769375879950744e+01 5.7811008252876412e+00 2.8184723762839545e+00 0 0 0
1899 1 4.7074966025982874e+01 4.4255261164646686e+00 4.9142901634050878e-01 0 0 1
191 1 4.7976161005439110e+01 3.8000947506746656e+00 2.9560723989650324e+00 0 0 0
155 1 2.0899802652580561e+00 9.2513259978292037e+00 2.7274020077879575e+00 0 0 0
47 1 1.1358672342107852e+00 1.0445459044726457e+01 4.7627592689127796e-01 1 0 0
130 1 5.3699833865751909e+00 9.1255250113005388e+00 9.5297704859297383e-01 0 0 0
1986 1 7.9731978967794923e+00 9.6078027122867038e+00 9.4721834050066445e-01 0 0 1
375 1 9.0679572888719857e+00 7.4609928630263882e+00 3.4004753234663072e+00 0 0 0
120 1 1.2011620208396335e+01 7.2838212728640386e+00 2.5326130153804134e+00 0 0 0
362 1 1.3046930884208905e+01 9.6836958918155016e+00 2.7885355746538933e+00 0 0 0
1746 1 1.4580308894952493e+01 1.0424226123265958e+01 7.0149983544889638e-01 0 0 1
99 1 1.7148655331773032e+01 9.4358990722257570e+00 8.1940117008019664e-01 0 0 0
78 1 1.7248732373654434e+01 1.0270923037152086e+01 3.3367928678981489e+00 0 0 0
2016 1 2.1339613428915463e+01 1.0051048448152869e+01 1.8898333607928923e+00 0 0 1
415 1 2.2582473480327909e+01 7.7758509802818079e+00 8.4533405256263616e-01 0 0 0
345 1 3.8831193023765735e+01 1.9763638508051429e-01 9.5199009104043135e+00 0 0 0
4 1 2.9351078003583183e+01 8.5916856056170143e+00 2.0969114481455779e+00 0 0 0
230 1 3.2025958550776423e+01 7.8844752190032823e+00 2.5671085422098630e+00 0 0 0
1830 1 3.2777568856072747e+01 9.5410125296522494e+00 5.2959231134374229e-01 0 0 1
58 1 3.6072840756212884e+01 7.5108922071279807e+00 4.0667402049383183e-01 0 0 0
262 1 3.4905246508195702e+01 7.6521682353581628e+00 2.9224280843479757e+00 0 0 0
357 1 3.9579408329945920e+01 8.1597357347319370e+00 2.7807074957425311e+00 0 0 0
308 1 3.8602978654355326e+01 8.5711911158699561e+00 1.5098628901668162e-01 0 0 0
1851 1 4.3791199883149389e+01 7.3233811010520684e+00 1.5768097173502527e-01 0 0 1
280 1 4.4449792797498660e+01 7.5286814762721193e+00 2.6655924017133561e+00 0 0 0
259 1 4.8086195423014630e+01 9.0815431507309032e+00 4.4943069989174889e-01 0 0 0
232 1 4.7136786380933216e+01 8.2963630237544130e+00 2.9505317981815136e+00 0 0 0
386 1 8.3552560558449906e-01 1.3234008461348353e+01 8.7075424310038363e-01 1 0 0
194 1 2.3441886109720764e+00 1.4413479003577445e+01 2.8000678827304144e+00 0 0 0
98 1 4.5968072309038268e+00 1.3008499063463562e+01 1.9299226457779179e+00 0 0 0
372 1 1.1022675316100083e+01 1.1701476868311856e+01 2.7516202160733703e+00 0 0 0
1 1 1.7227945270715278e+01 1.3874215943136454e+01 8.3263571858628016e-01 0 0 0
347 1 2.3229233806703249e+01 1.1893872351159608e+01 2.2780771270337410e+00 0 0 0
2051 1 2.4679563878214932e+01 1.0653715053599885e+01 2.1465195589866479e-01 0 0 1
288 1 2.8433223165529789e+01 1.0906189423639507e+01 2.9544924314348728e+00 0 0 0
1689 1 2.6816953945345503e+01 1.2273134505409244e+01 1.1365169744963666e+00 0 0 1
110 1 3.0016166666233968e+01 1.3083614252112559e+01 5.9170969413200203e-01 0 0 0
244 1 3.3174254023141117e+01 1.3201198916100196e+01 3.1758106363651870e+00 0 0 0
24 1 3.4385195176399947e+01 1.1073670753195513e+01 2.1465504382065479e+00 0 0 0
22 1 3.6306563228680034e+01 1.2234658710232246e+01 7.5960170880799649e-01 0 0 0
328 1 3.7878365405923915e+01 1.2299647730400112e+01 2.9274189690501848e+00 0 0 0
326 1 4.0617785631129507e+01 1.2081736025587483e+01 2.2492409495334762e+00 0 0 0
74 1 4.2396785653994797e+01 1.3932116020909518e+01 3.6078014301049115e+00 0 0 0
2202 1 2.7543265530594685e+01 2.4931159105569691e+01 8.3506631513177680e+00 0 0 0
313 1 4.4451040155616496e+01 1.2198115213304431e+01 2.6089916502457533e+00 0 0 0
268 1 4.8008812405869179e+01 1.3743268413480672e+01 1.6554000045165200e+00 0 0 0
60 1 5.5094227927668795e+00 1.5080617574526537e+01 6.7451391010507877e-01 0 0 0
32 1 6.5457722172745534e+00 1.6572254414347974e+01 2.8338654340499749e+00 0 0 0
344 1 3.9896371192700615e+00 1.7650720868701598e+01 1.8903465532934238e-01 0 0 0
182 1 9.0727269062694660e+00 1.7666751017976988e+01 1.9778313629707536e+00 0 0 0
387 1 1.0413619578306191e+01 1.4264856358269260e+01 1.2894765656178333e+00 0 0 0
89 1 1.1467323034082186e+01 1.6580512592514722e+01 2.7226121877488918e+00 0 0 0
299 1 1.3932909637109137e+01 1.5291504785509906e+01 1.7275531408291234e+00 0 0 0
1859 1 1.5619226873402120e+01 1.7638505381381268e+01 1.5530121509128583e+00 0 0 1
334 1 1.7704955884259054e+01 1.7865356651004593e+01 3.1988297016277984e+00 0 0 0
71 1 2.3181198887034167e+01 1.7371372829813208e+01 1.3565241338246425e+00 0 0 0
1679 1 2.3459746510750033e+01 1.4818720467636453e+01 2.4869890311866736e+00 0 0 1
207 1 2.6083540129744758e+01 1.4491949293021275e+01 2.4849601988344472e+00 0 0 0
402 1 2.6974604262589821e+01 1.6926840860355174e+01 1.4052598329008494e+00 0 0 0
399 1 2.9654275471500643e+01 1.7358560611673077e+01 1.6740194163263364e+00 0 0 0
249 1 3.1265902879096718e+01 1.5555476435334402e+01 3.2961956188830910e-01 0 0 0
124 1 3.3650397947329523e+01 1.5285572811388777e+01 1.4999896658434189e+00 0 0 0
168 1 3.5063917122964654e+01 1.7359696145933789e+01 2.7499439656357847e+00 0 0 0
42 1 3.9304866252144009e+01 1.4409604739634322e+01 4.7293308144653795e-01 0 0 0
343 1 3.9606356404269334e+01 1.5619792810723309e+01 3.1539699766304059e+00 0 0 0
281 1 4.2902561078637348e+01 1.6924413973576073e+01 2.3402803656854552e+00 0 0 0
1892 1 4.1729980456217447e+01 1.5774879367634728e+01 1.5051370462716521e-01 0 0 1
311 1 4.7603227556124878e+01 1.6428431536466398e+01 1.5353753173987648e+00 0 0 0
90 1 4.5556229505135395e+00 1.8607314637510399e+01 2.6692086586938446e+00 0 0 0
382 1 4.3254799200644998e+00 2.1334108663339535e+01 1.7207978942168825e+00 0 0 0
1808 1 1.2740512873905697e+01 1.8743970897683926e+01 1.6551197440735261e+00 0 0 1
304 1 2.1344016350812620e+01 2.0666073949776333e+01 2.0280868722982697e+00 0 0 0
1884 1 2.0531347416965509e+01 1.8123207977761854e+01 2.1617786039589282e+00 0 0 1
183 1 2.3738974183794614e+01 2.1141269154044085e+01 1.0225133115328380e+00 0 0 0
1768 1 2.5404964997144454e+01 1.9132273940621612e+01 2.2618977190906118e+00 0 0 1
1911 1 2.7348531249290559e+01 2.0918990537896903e+01 6.9541305789826280e-01 0 0 1
279 1 3.5248171730152862e+01 2.0279427478301493e+01 2.9632725891406175e+00 0 0 0
163 1 3.6759326528441548e+01 1.8116728161001213e+01 6.3980867526666385e-01 0 0 0
153 1 3.9227880150812794e+01 1.9138459290741768e+01 1.0865372750292330e+00 0 0 0
52 1 4.0664243092641755e+01 1.8354390248263197e+01 3.2046784545929854e+00 0 0 0
38 1 4.2592797374712703e+01 2.0458116072117626e+01 3.1732602683119642e+00 0 0 0
178 1 4.4581994132780224e+01 1.8654321235228803e+01 7.5311323794396712e-01 0 0 0
134 1 4.9446537750052030e+01 1.8778919039237699e+01 1.6328853935915992e+00 0 0 0
8 1 4.7050021526985887e+01 2.0086411687794733e+01 7.9279085506988045e-01 0 0 0
128 1 2.1021523165471440e-01 2.1778602045655738e+01 1.8158552902018894e+00 0 0 0
314 1 2.4953909524139823e+00 2.2550522403353629e+01 3.4598296108061688e+00 0 0 0
310 1 6.6505105963750717e+00 2.3013055027898577e+01 2.1600796853819100e+00 0 0 0
2050 1 9.2055174320115807e+00 2.2287164513492829e+01 1.2811812521953629e+00 0 0 1
1889 1 1.0995668284654034e+01 2.4387608663342206e+01 1.5940117779485259e+00 0 0 1
258 1 1.3336680306449916e+01 2.3133992403652815e+01 2.5927680461292208e+00 0 0 0
379 1 1.5361030936659787e+01 2.2257772063370830e+01 9.9901860236224316e-01 0 0 0
1928 1 1.7596270236653780e+01 2.2336222347064481e+01 2.8136364718244122e+00 0 0 1
2030 1 1.9328055120940409e+01 2.1752146277567778e+01 8.6508586088172135e-01 0 0 1
2277 1 2.4358471152744798e+01 2.3779439970934259e+01 1.5963767600212311e+00 0 0 0
7 1 2.7329756073196606e+01 2.3765084668559876e+01 9.5481987742836560e-01 0 0 0
248 1 3.0266760582699199e+01 2.3897812162673947e+01 1.0213094472486604e+00 0 0 0
147 1 3.4305879406126451e+01 2.2134706366789462e+01 1.1589422822242870e+00 0 0 0
2075 1 3.5807414216911269e+01 2.4160637271238958e+01 2.4436610539101715e+00 0 0 0
184 1 3.9383207096022446e+01 2.1809071447792832e+01 8.7580243226209809e-01 0 0 0
160 1 3.8183355281877937e+01 2.2942913061903884e+01 2.9433610818163287e+00 0 0 0
1876 1 4.2084852853919074e+01 2.1721364580636237e+01 6.0570794714316811e-01 0 0 1
403 1 4.4309574135161284e+01 2.3650573873210252e+01 2.1476705351212404e+00 0 0 0
148 1 4.6384057851291615e+01 2.2023463739881038e+01 2.7360283156016849e+00 0 0 0
170 1 2.3033117057328654e+00 2.4029928104530764e+00 5.2543745598390981e+00 0 0 0
228 1 4.9477453482769027e+00 3.0459283880985084e+00 4.4367020661547052e+00 0 0 0
2215 1 4.7456235745397404e+00 8.6764753551905527e-01 6.9988895460141336e+00 0 1 0
420 1 7.3280214228513740e+00 1.7780420217701498e+00 4.2259660060016202e+00 0 0 0
122 1 9.8319103719598822e+00 3.1327424777341184e+00 3.7995467654443078e+00 0 0 0
197 1 1.2687524261045800e+01 3.0740740357554692e+00 4.3981363603617432e+00 0 0 0
50 1 1.6162657704415150e+01 2.2640611816163125e+00 5.5700646988386824e+00 0 0 0
236 1 1.9948780221822815e+01 3.3354973931068599e-01 5.2641185201578997e+00 0 0 0
93 1 2.2593537219052365e+01 7.4572375822132575e-01 5.5757564111774425e+00 0 0 0
349 1 2.3167964969578623e+01 3.1683403994728243e+00 4.9276019352630378e+00 0 0 0
151 1 2.5841940552584035e+01 2.9210339015256075e+00 4.2825456297291371e+00 0 0 0
57 1 2.7795786054527909e+01 9.2347301943589888e-01 3.7437735695461289e+00 0 0 0
121 1 2.9815395173905177e+01 7.1785657880514975e-01 5.5042281015582546e+00 0 0 0
67 1 3.0656988983630534e+01 3.3791083778997861e+00 5.4837617663575724e+00 0 0 0
369 1 3.3119292878855603e+01 2.5732923842014941e+00 4.4829692566853234e+00 0 0 0
292 1 3.4965486553741997e+01 2.1974403639694238e+00 6.4992363808601992e+00 0 0 0
211 1 3.7342475422484299e+01 9.7506241443641839e-01 5.7997312597158270e+00 0 0 0
54 1 3.9513952454607633e+01 2.6112214135857181e+00 5.6177583238723861e+00 0 0 0
179 1 4.1924166308109179e+01 1.3094668470970481e+00 4.9383161192877694e+00 0 0 0
100 1 4.3646163020200035e+01 2.9565766679516070e+00 3.7372619402119098e+00 0 0 0
165 1 4.6231241190417293e+01 2.8254380030045478e+00 4.8763962860922438e+00 0 0 0
2414 1 4.7394123444840588e+01 5.2541878335184389e-01 6.0068205910737049e+00 0 1 0
105 1 1.5696951368534546e+00 6.8428329730892106e+00 3.6850869005741633e+00 1 0 0
61 1 6.2536305423540526e+00 6.6912543846900343e+00 3.5483416826151850e+00 0 0 0
95 1 5.3582044768527739e+00 5.1689005253164497e+00 5.8101509975906636e+00 0 0 0
87 1 9.5799188952220788e+00 5.4643907859814354e+00 5.3319045973757788e+00 0 0 0
73 1 1.3168321691080459e+01 5.7571021981443247e+00 4.4097491565380302e+00 0 0 0
422 1 1.1790939356035091e+01 6.4206806934663039e+00 6.7635437728366430e+00 0 0 0
322 1 1.5661608221325665e+01 6.6284610609340078e+00 4.9358813273958830e+00 0 0 0
238 1 1.6631850463862779e+01 4.7837891611844094e+00 6.7990907315980351e+00 0 0 0
125 1 1.9444709278196296e+01 6.7221504647443666e+00 4.3766380386544874e+00 0 0 0
66 1 2.7577161892020360e+01 4.1140499744941188e+00 5.9164961528930187e+00 0 0 0
53 1 2.8164484927483635e+01 6.9460338617228361e+00 3.7640747425155365e+00 0 0 0
3 1 3.6336730324790580e+01 5.4893749221112254e+00 4.2516028086384372e+00 0 0 0
223 1 3.8757370117591165e+01 4.2812292545881769e+00 3.6661321278419075e+00 0 0 0
16 1 4.3163970124087697e+01 5.5474422003740029e+00 3.9919670141838695e+00 0 0 0
229 1 4.3954372140515247e+01 6.1775704743066067e+00 6.5281407836741332e+00 0 0 0
164 1 4.8660574947807362e+01 6.2568117164324892e+00 3.9943025852273077e+00 0 0 0
235 1 4.8569258869462857e+01 5.5440888022650503e+00 6.6640228492397933e+00 0 0 0
277 1 6.7741433235064297e-01 1.0505867739226737e+01 4.6902469788236960e+00 0 0 0
176 1 3.2849476388906425e+00 7.3332910292171176e+00 5.9190719313734563e+00 0 0 0
384 1 4.7922274393041864e+00 9.1474266922205540e+00 3.7414541516901627e+00 0 0 0
378 1 5.2722755552912020e+00 9.6592345092340164e+00 6.7642983058086230e+00 0 0 0
208 1 8.8601263842760467e+00 1.0325219092733269e+01 3.8146219146636682e+00 0 0 0
46 1 9.4922204985034497e+00 1.0351005176953151e+01 6.6185308684087341e+00 0 0 0
300 1 1.5107962495672444e+01 9.2410935282123852e+00 4.5218035594086352e+00 0 0 0
30 1 1.4006476628497030e+01 1.0440545781498741e+01 6.6107731869569690e+00 0 0 0
278 1 1.9621491855017290e+01 9.3295558695140883e+00 4.0240486718373223e+00 0 0 0
162 1 2.4073159387369746e+01 7.7303880646968040e+00 4.2028306990848847e+00 0 0 0
312 1 2.4322958636232652e+01 1.0394028931045010e+01 4.3694674324960872e+00 0 0 0
370 1 2.8093114776958739e+01 8.2406654910166868e+00 6.2337446500685409e+00 0 0 0
366 1 3.2271458499594047e+01 8.4041173107653702e+00 5.3661957090573225e+00 0 0 0
405 1 3.6502151615036482e+01 1.0006082940463619e+01 3.9282591967995084e+00 0 0 0
400 1 3.6183932176703408e+01 1.0569466542149184e+01 6.6643676931048468e+00 0 0 0
36 1 3.8021807010624471e+01 7.7694568255725018e+00 4.7737964258851138e+00 0 0 0
255 1 4.0160449309198668e+01 1.0400236951417215e+01 6.3304027565154133e+00 0 0 0
156 1 4.1032535999343125e+01 9.9823350659973542e+00 3.8360552456972350e+00 0 0 0
206 1 4.3686548027464084e+01 9.7945549742586646e+00 3.7754021822894570e+00 0 0 0
275 1 4.4272533019060646e+01 9.1048950719783939e+00 6.4750043568639821e+00 0 0 0
352 1 4.7869430755694268e+01 1.0371844013970227e+01 4.5996379141687500e+00 0 0 0
348 1 1.4536531748059911e+00 1.3051203759140453e+01 4.8650982653481885e+00 1 0 0
242 1 5.5152332047976538e+00 1.2689449550840326e+01 6.3754391811731992e+00 0 0 0
302 1 6.1994501843223899e+00 1.1493626353996413e+01 3.8175210233981867e+00 0 0 0
40 1 1.2890321596502361e+01 1.2423046326773740e+01 4.9177639491437439e+00 0 0 0
265 1 1.1968720167563143e+01 1.4146268508451497e+01 6.7644728770948284e+00 0 0 0
423 1 1.4838698415264698e+01 1.4083370292025823e+01 4.1454476135552794e+00 0 0 0
221 1 1.7241584545547475e+01 1.2882935460544376e+01 3.4749658089325570e+00 0 0 0
338 1 1.8880405447936027e+01 1.3708384129703473e+01 5.5619943221599213e+00 0 0 0
320 1 2.0237701438528202e+01 1.0956908537414257e+01 6.1369008272485095e+00 0 0 0
145 1 2.1617301490706069e+01 1.4046711194123951e+01 6.4605049211603296e+00 0 0 0
301 1 2.2862639778516098e+01 1.1045846442490888e+01 6.6633708570861891e+00 0 0 0
203 1 2.6912912348391583e+01 1.1069318454041751e+01 5.2992056892431094e+00 0 0 0
115 1 2.6921303117201557e+01 1.3860075220944234e+01 4.8937271710590551e+00 0 0 0
404 1 3.0522937948537201e+01 1.2682064388414513e+01 3.4466184206660766e+00 0 0 0
154 1 3.1629251060202854e+01 1.1073391579509542e+01 5.6778651050011062e+00 0 0 0
35 1 3.4426546833432170e+01 1.3663803052542317e+01 5.4017257332241488e+00 0 0 0
332 1 3.6991569624736968e+01 1.3896186224234635e+01 4.8770953562033688e+00 0 0 0
31 1 4.5058952976520075e+01 1.3841929457886350e+01 5.8603354424272993e+00 0 0 0
39 1 4.6956160297176325e+01 1.2783062623259902e+01 3.8964827566031874e+00 0 0 0
9 1 4.8827478931968926e+01 1.4032820131438115e+01 5.5705711804123252e+00 0 0 0
173 1 2.5905787904949964e+00 1.7076706570107863e+01 3.8237157010130129e+00 0 0 0
237 1 3.6502951532245320e+00 1.6503151434294661e+01 6.1979963723190314e+00 0 0 0
84 1 6.1707446519711615e+00 1.5364599103976538e+01 5.5608007401110982e+00 0 0 0
26 1 1.1674845473389247e+01 1.6633423098754314e+01 5.4698005850494757e+00 0 0 0
200 1 1.5343770330880792e+01 1.5665418292351060e+01 6.3694885078673273e+00 0 0 0
186 1 1.3740022989923849e+01 1.7995534529324246e+01 6.6237191449562225e+00 0 0 0
219 1 1.7772596166967805e+01 1.6314653969057403e+01 5.3733045726694701e+00 0 0 0
254 1 2.2837792073092132e+01 1.5767092630335020e+01 4.9509231268259013e+00 0 0 0
181 1 2.4590806196588403e+01 1.7205145762585811e+01 6.6157134018212966e+00 0 0 0
85 1 2.9583541022876116e+01 1.4620292788985619e+01 4.8737018128682186e+00 0 0 0
339 1 3.0092322045766466e+01 1.7337812487501516e+01 4.3651010158081753e+00 0 0 0
306 1 3.2774833419842636e+01 1.7821499228926921e+01 4.6111294501829247e+00 0 0 0
210 1 3.3828112705962212e+01 1.6186975933285648e+01 6.2791912150911982e+00 0 0 0
11 1 3.7137856443456272e+01 1.6669171161552367e+01 4.4650099265209384e+00 0 0 0
55 1 4.0424746985968326e+01 1.4522957693492881e+01 5.9261753966644592e+00 0 0 0
45 1 4.4306277899227553e+01 1.6277812734211874e+01 4.8631394264571393e+00 0 0 0
374 1 4.6639170913338958e+01 1.7449330020003540e+01 3.9420482778333281e+00 0 0 0
389 1 4.8579735260928757e+01 1.6748485816152193e+01 6.0569288862722930e+00 0 0 0
388 1 6.7856913952539366e-01 2.0956122438052116e+01 5.4785331204940473e+00 0 0 0
118 1 3.2489425281964934e-01 1.8438205810537351e+01 4.3299843386398535e+00 0 0 0
205 1 6.0141428344473695e+00 1.9697410164381090e+01 4.7916992332397159e+00 0 0 0
190 1 9.6132339000315437e+00 1.7901629201625141e+01 6.3372832043565799e+00 0 0 0
28 1 8.6284011014679525e+00 1.9187074478341916e+01 4.2428818033359894e+00 0 0 0
127 1 1.2701504141984492e+01 2.0728193861382380e+01 3.4780047135418592e+00 0 0 0
333 1 1.0192048915051918e+01 2.1354297375789685e+01 3.8564998284128307e+00 0 0 0
77 1 1.4477468778595441e+01 2.0291645325080250e+01 5.3118772936172638e+00 0 0 0
401 1 1.7013439981064057e+01 2.0211251641402782e+01 4.4234311271577678e+00 0 0 0
218 1 2.1266770915092746e+01 1.7837741037093096e+01 4.8295849558824671e+00 0 0 0
64 1 2.2719720261934572e+01 1.9827072442453776e+01 5.5856331577236551e+00 0 0 0
417 1 2.5764281336909889e+01 1.9374600470956661e+01 4.9761483001397950e+00 0 0 0
247 1 2.8478727470233938e+01 1.9004972707980603e+01 5.8705074407874314e+00 0 0 0
107 1 2.9588553621290401e+01 2.1511851946042814e+01 6.5379269657931962e+00 0 0 0
356 1 3.3646773419659880e+01 2.0458929372770324e+01 5.2467228679761746e+00 0 0 0
231 1 3.7314907168560381e+01 2.0885903612151647e+01 4.6207062362744917e+00 0 0 0
414 1 3.9061471808534449e+01 1.8717967753450157e+01 5.5023471720289230e+00 0 0 0
106 1 4.5165419425659806e+01 1.9907841283851344e+01 3.9772600719294804e+00 0 0 0
285 1 4.4471507815800408e+01 1.9924176764504999e+01 6.6053769453595850e+00 0 0 0
394 1 3.9543805302046460e+00 2.2832643398603015e+01 5.9049868839341633e+00 0 0 0
276 1 6.2884653444722698e+00 2.2293423591725290e+01 4.7710871883314123e+00 0 0 0
104 1 8.0665667997744723e+00 2.3705163132179514e+01 6.1789582188515180e+00 0 0 0
144 1 1.0238784407172684e+01 2.2288321982239676e+01 6.4106471232091158e+00 0 0 0
23 1 1.5083253599248964e+01 2.4638741334271664e+01 4.0443332027490797e+00 0 0 0
335 1 1.6402278114191581e+01 2.3380794191170040e+01 6.1124025386289649e+00 0 0 0
363 1 1.9296818780874148e+01 2.2979812879927778e+01 5.0952510361869976e+00 0 0 0
2411 1 2.1751143772875924e+01 2.1892890707645257e+01 4.3981009550037538e+00 0 0 0
309 1 2.5463766096621576e+01 2.2165604821561626e+01 5.6707412047315211e+00 0 0 0
2379 1 2.3809032818468822e+01 2.3710139586603859e+01 4.2931739935270476e+00 0 0 0
5 1 2.7763831053697665e+01 2.3328171728509915e+01 6.1375702006440207e+00 0 0 0
2296 1 3.1166225758621113e+01 2.4489417146557678e+01 3.5342048830707573e+00 0 0 0
44 1 3.1962874598540449e+01 2.2620710651406490e+01 5.4461286375052476e+00 0 0 0
69 1 3.4166362158720034e+01 2.3792975113917780e+01 6.7362170193275555e+00 0 0 0
240 1 4.0007701940432909e+01 2.4591358669237650e+01 4.0286847809326041e+00 0 0 0
412 1 4.2342946777172543e+01 2.3271117218953403e+01 4.3361769812302757e+00 0 0 0
294 1 4.2346694606350042e+01 2.1721913691802708e+01 6.6280150276984244e+00 0 0 0
131 1 4.8571268108057239e+01 2.2901382898305911e+01 4.1781148938098482e+00 -1 0 0
123 1 1.1055139546356832e-01 2.1829677629330857e+00 9.1793672341585051e+00 1 0 0
380 1 4.2900269677487044e+00 2.3906606893729676e+00 9.2121475044854950e+00 0 0 0
17 1 6.8696327151980130e+00 2.0404690242882362e+00 9.9453873245513478e+00 0 0 0
227 1 8.0877697678858738e+00 2.6267506199486279e+00 7.7288296476660685e+00 0 0 0
293 1 1.0650040748279171e+01 2.1641219245806509e+00 8.2012267793865323e+00 0 0 0
359 1 1.3235961047907436e+01 2.8593178572028588e+00 7.2270999105823925e+00 0 0 0
224 1 1.4080581513842116e+01 1.2272665542315169e+00 9.4116927603925440e+00 0 0 0
424 1 1.7985560839738646e+01 9.6286805221500704e-01 6.9429405683308696e+00 0 0 0
416 1 1.8498748596084347e+01 3.0347024602675527e+00 8.6184894531560765e+00 0 0 0
29 1 2.4877498548489520e+01 1.8802256645495437e+00 9.1574320439531345e+00 0 0 0
2481 1 2.8850810326311702e+01 4.8407530212327982e-01 8.0007299203791682e+00 0 1 0
376 1 2.7298199412823664e+01 2.5161619596958547e+00 8.1367204751938278e+00 0 0 0
269 1 3.0798957595128496e+01 8.1666385663437624e-01 9.7360889881160162e+00 0 0 0
136 1 3.3414225449595236e+01 1.6787614238123107e+00 8.9693564219515345e+00 0 0 0
705 1 3.9451987219344403e+01 2.7368581033215542e+00 9.9460419233940467e+00 0 0 0
222 1 4.3084425761246067e+01 9.8157284079884244e-01 7.5815711938139758e+00 0 0 0
736 1 4.3409556876322185e+01 2.8532965706471440e+00 9.5101444817537342e+00 0 0 0
413 1 3.2724063982895728e+01 2.1836139931782839e-01 3.1974853889797568e+00 0 0 0
410 1 4.7288700927115414e+01 1.3950287702840125e+00 9.6659178815718203e+00 0 0 0
101 1 9.5543970140146006e-01 3.8555817749592389e+00 7.1807196647337568e+00 0 0 0
305 1 3.2963629601996094e+00 6.9873768648668344e+00 9.6041285030555521e+00 0 0 0
284 1 3.4550224450759619e+00 4.7702181486237638e+00 7.9784561893287282e+00 0 0 0
129 1 7.6673326237545609e+00 5.1392622741478666e+00 7.0904164746905618e+00 0 0 0
13 1 8.0583760966258318e+00 6.7010606279215832e+00 9.1272824837384263e+00 0 0 0
385 1 1.0660033989309747e+01 5.9696856310989457e+00 9.3646247469482091e+00 0 0 0
329 1 1.4091225590664987e+01 5.3128913482321716e+00 8.0463475277652456e+00 0 0 0
75 1 1.9395290922885344e+01 5.8354266824707208e+00 7.0054797702600444e+00 0 0 0
142 1 2.3036932494314829e+01 3.7573148228355651e+00 9.2872959384690912e+00 0 0 0
189 1 2.2206608961400285e+01 4.8799287753227638e+00 6.9893727902338476e+00 0 0 0
291 1 2.4105441080684731e+01 6.8164239731426424e+00 6.7261659123712301e+00 0 0 0
340 1 2.6658567639564044e+01 6.2476919888645686e+00 7.2206324679300087e+00 0 0 0
808 1 2.7044451138152962e+01 5.9311169629207896e+00 9.9139744279548623e+00 0 0 0
65 1 2.8899533369845717e+01 4.0372169509466520e+00 9.6878796515499204e+00 0 0 0
260 1 3.0752971710300219e+01 4.7827851432224824e+00 7.7834766581577242e+00 0 0 0
524 1 3.3307975720829717e+01 4.5284901168748020e+00 8.6491305369562461e+00 0 0 0
146 1 3.5442384047996484e+01 5.1380222153396051e+00 6.8076455522691930e+00 0 0 0
286 1 3.9687778163954761e+01 4.1783840012652185e+00 7.7767134854333229e+00 0 0 0
82 1 3.7737806270751591e+01 5.9950673906574474e+00 7.9778936371926941e+00 0 0 0
171 1 4.2124006555120658e+01 4.9843255378196751e+00 8.3472669840719877e+00 0 0 0
2291 1 4.7728344433958810e+01 2.3455729416610964e+01 6.8111192830548122e+00 0 0 0
272 1 4.5890859296846585e+01 3.8065602478508240e+00 9.6829828477763034e+00 0 0 0
83 1 4.6079754296356185e+01 4.5002085781075607e+00 6.9561124398816903e+00 0 0 0
239 1 4.6665832704674756e+01 6.7991072833361841e+00 1.0036718089704026e+01 0 0 0
406 1 1.0087068661241172e+00 9.0538052750874201e+00 6.9068836851524562e+00 1 0 0
33 1 3.7715586190046841e+00 9.5794460257385268e+00 8.9473352476099279e+00 0 0 0
270 1 7.5005933804773290e+00 9.0693871507349453e+00 7.8729220086240730e+00 0 0 0
27 1 1.1777972986537264e+01 9.0633734486607622e+00 7.4485372831384691e+00 0 0 0
2092 1 4.5342713233489249e+01 2.4429198018524673e+01 8.0141541934505227e+00 0 0 0
20 1 1.5523878180424786e+01 7.9639553349730212e+00 7.9645079852070726e+00 0 0 0
282 1 1.8230438996859636e+01 7.9888873677793608e+00 8.4005736668296347e+00 0 0 0
79 1 2.4032220540457995e+01 8.9693285879061193e+00 8.2031756675373835e+00 0 0 0
139 1 2.6324773431119173e+01 1.0471322005570535e+01 8.1797752711569753e+00 0 0 0
48 1 3.0544341840100945e+01 7.5341414072599706e+00 7.2208170787014447e+00 0 0 0
243 1 3.1177249521590898e+01 8.5740722868928838e+00 9.9398411562842703e+00 0 0 0
10 1 3.4660380952688399e+01 7.9257933913784822e+00 6.7463651132310138e+00 0 0 0
264 1 3.3896123985339372e+01 9.0833327833514552e+00 9.2335700385076969e+00 0 0 0
91 1 3.8328503120324896e+01 8.8053836631478983e+00 7.5293470921992398e+00 0 0 0
102 1 4.2814670221010061e+01 2.3285175164684937e+01 8.6085283824414311e+00 0 0 0
316 1 4.4275873804449148e+01 7.9644547737600995e+00 9.3239155601537131e+00 0 0 0
568 1 4.4419830750067348e+01 1.0743193184836505e+01 9.9543445585164747e+00 0 0 0
199 1 4.6915047455597914e+01 9.6014693634633748e+00 6.9812527779855271e+00 0 0 0
138 1 4.8732673480089616e+01 7.6548123805339756e+00 8.2113123258257730e+00 0 0 0
51 1 3.0055155209690083e+00 1.3566042350022862e+01 7.0110587254923535e+00 0 0 0
21 1 1.6462053003991866e+00 1.1419936512804485e+01 8.5237181112191269e+00 1 0 0
185 1 7.2992176336034280e+00 1.0891312450012920e+01 9.8560272703384442e+00 0 0 0
256 1 7.1528988480373945e+00 1.3289993345795367e+01 8.5612324954945649e+00 0 0 0
289 1 9.9828557709391763e+00 1.2726447721027679e+01 8.0333188787187098e+00 0 0 0
251 1 1.5129424837882492e+01 1.2042918168263707e+01 8.4790771296118681e+00 0 0 0
266 1 1.9107228918000594e+01 1.0669847531183244e+01 8.5024267777057307e+00 0 0 0
152 1 1.7601812619394327e+01 1.3041289715183266e+01 8.0132265690397979e+00 0 0 0
383 1 2.2556252152827795e+01 1.3282940965403435e+01 1.0012186029798741e+01 0 0 0
273 1 2.4543283264433114e+01 1.2751718867322094e+01 8.2560055579636753e+00 0 0 0
324 1 2.9474546921797991e+01 1.1323476704553809e+01 7.2721457472588904e+00 0 0 0
43 1 3.0061772896840719e+01 1.0948791751698185e+01 9.8503789632600043e+00 0 0 0
393 1 2.9961183601081871e+01 1.4061403828675290e+01 7.4141298749397553e+00 0 0 0
167 1 3.3719942871396128e+01 1.1734428909608631e+01 7.3041679198527243e+00 0 0 0
297 1 3.3599721034572667e+01 1.3656481884440074e+01 9.1861054972262135e+00 0 0 0
250 1 3.8491639553909522e+01 1.2523834026305931e+01 6.9283045717088889e+00 0 0 0
202 1 3.8744072355362078e+01 1.3010076342115999e+01 9.6738702686588169e+00 0 0 0
361 1 4.2350554081675412e+01 1.0765378256145524e+01 7.8796074424899700e+00 0 0 0
398 1 4.2669953493801287e+01 1.3233471115707339e+01 7.0666537604941446e+00 0 0 0
216 1 4.6875822227687479e+01 1.1589420923548792e+01 8.9210490140816923e+00 0 0 0
114 1 4.9131566787506841e+01 1.3041071072524829e+01 8.0206270448071244e+00 0 0 0
161 1 5.7616859508154028e-01 1.4925414150225034e+01 9.4495862173366412e+00 0 0 0
2 1 1.2346034203813747e+00 1.6886388421472084e+01 7.6460185149964861e+00 0 0 0
18 1 7.7380984591033579e+00 1.6405583719363367e+01 7.6160657254894932e+00 0 0 0
397 1 9.8068495991209197e+00 1.5549800744081457e+01 9.1469508403545507e+00 0 0 0
670 1 1.3965912460959011e+01 1.4388655749604391e+01 8.6221124863851788e+00 0 0 0
150 1 1.5543793817219633e+01 1.7585843774304163e+01 9.2897189878585369e+00 0 0 0
15 1 1.7374627397201237e+01 1.5458127850870060e+01 9.4801100277248409e+00 0 0 0
317 1 1.9564811544336621e+01 1.6872227411073190e+01 9.2375238272698343e+00 0 0 0
315 1 2.1811069907889308e+01 1.5493608089732101e+01 8.7249517449146374e+00 0 0 0
12 1 2.5873580787088148e+01 1.4761195810013062e+01 7.1699251394665158e+00 0 0 0
141 1 2.7942842199394658e+01 1.5401736534272187e+01 8.6103887677000603e+00 0 0 0
119 1 3.2068719205266092e+01 1.5562301001527725e+01 8.1039627383316137e+00 0 0 0