
# Create simulation box and atoms
lattice		    sc 1
Lattice spacing in x,y,z = 1 1 1
region 		    all block 0 50 0 50 0 50 units box
create_box 	    1 all
Created orthogonal box = (0 0 0) to (50 50 50)
  2 by 2 by 3 MPI processor grid

create_atoms	1 random 4096 83782 all
Created 4096 atoms
  Time spent = 0.000505924 secs

mass		    1 18.15

# Define potential

pair_style 	    sw
pair_coeff	    * * mW_real.sw mW
Reading potential file mW_real.sw with DATE: 2019-02-27

# Run minimization and output files

minimize 	    1.0e-8 1.0e-8 10000 1000
WARNING: Using 'neigh_modify every 1 delay 0 check yes' setting during minimization (../min.cpp:168)
Neighbor list info ...
  update every 1 steps, delay 0 steps, check yes
  max neighbors/atom: 2000, page size: 100000
  master list distance cutoff = 6.3065
  ghost atom cutoff = 6.3065
  binsize = 3.15325, bins = 16 16 16
  1 neighbor lists, perpetual/occasional/extra = 1 0 0
  (1) pair sw, perpetual
      attributes: full, newton on
      pair build: full/bin/atomonly
      stencil: full/bin/3d
      bin: standard
Per MPI rank memory allocation (min/avg/max) = 4.22 | 4.223 | 4.228 Mbytes
Step Temp E_pair E_mol TotEng Press 
       0            0    3558105.7            0    3558105.7    2737058.2 
     705            0    -46173.33            0    -46173.33   -1079.4206 
Loop time of 2.02175 on 12 procs for 705 steps with 4096 atoms

98.1% CPU use with 12 MPI tasks x no OpenMP threads

Minimization stats:
  Stopping criterion = max force evaluations
  Energy initial, next-to-last, final = 
         3558105.72845     -46173.1710879     -46173.3297827
  Force two-norm initial, final = 3.20802e+07 3.00429
  Force max component initial, final = 1.17575e+07 0.444838
  Final line search alpha, max atom move = 0.0668328 0.0297298
  Iterations, force evaluations = 705 1001

MPI task timing breakdown:
Section |  min time  |  avg time  |  max time  |%varavg| %total
---------------------------------------------------------------
Pair    | 1.1978     | 1.565      | 1.7726     |  14.2 | 77.41
Neigh   | 0.022752   | 0.02667    | 0.029916   |   1.2 |  1.32
Comm    | 0.1738     | 0.38245    | 0.759      |  29.1 | 18.92
Output  | 0          | 0          | 0          |   0.0 |  0.00
Modify  | 0          | 0          | 0          |   0.0 |  0.00
Other   |            | 0.04765    |            |       |  2.36

Nlocal:    341.333 ave 354 max 306 min
Histogram: 1 0 0 1 0 0 1 3 2 4
Nghost:    1016.42 ave 1057 max 995 min
Histogram: 3 2 1 2 1 0 1 1 0 1
Neighs:    0 ave 0 max 0 min
Histogram: 12 0 0 0 0 0 0 0 0 0
FullNghs:  11065.2 ave 11809 max 9333 min
Histogram: 1 0 1 0 0 1 2 2 0 5

Total # of neighbors = 132782
Ave neighs/atom = 32.4175
Neighbor list builds = 38
Dangerous builds = 0
write_restart	min.${NAME}.rst
write_restart	min.liquid_msd_long.rst
write_data      min.${NAME}.data
write_data      min.liquid_msd_long.data

# Equilibration of molecular water

# Add velocity/set timestep

velocity	    all create ${TEMP} 120598 rot yes dist gaussian
velocity	    all create 298 120598 rot yes dist gaussian
timestep	    5.0

# Define output
compute			1 all msd

thermo	    	50
thermo_style	custom step temp press vol etotal ke pe c_1[4]

# Neighbor lists

neigh_modify    delay 0 every 1 check yes

# Set fixes

fix             1 all momentum 10 linear 1 1 1 rescale
fix             2 all nve
fix             3 all temp/csvr ${TEMP} ${TEMP} 500.0 928347
fix             3 all temp/csvr 298 ${TEMP} 500.0 928347
fix             3 all temp/csvr 298 298 500.0 928347
fix             4 all press/berendsen iso ${PRES} ${PRES} 1000.0 modulus 20000
fix             4 all press/berendsen iso 1 ${PRES} 1000.0 modulus 20000
fix             4 all press/berendsen iso 1 1 1000.0 modulus 20000

# Run 1 ns equilibration

#dump		    1 all xtc 2000 eq.${NAME}-p1t${TEMP}.xtc
dump		    1 all atom 1000 eq.${NAME}-p1t${TEMP}.dump
dump		    1 all atom 1000 eq.liquid_msd_long-p1t${TEMP}.dump
dump		    1 all atom 1000 eq.liquid_msd_long-p1t298.dump

reset_timestep  0

run	            200000
Per MPI rank memory allocation (min/avg/max) = 4.484 | 4.487 | 4.491 Mbytes
Step Temp Press Volume TotEng KinEng PotEng c_1[4] 
       0          298    250.81112       125000   -42535.817    3637.5123    -46173.33            0 
      50    174.82543   -68.568665    125592.46   -41657.722    2133.9921   -43791.714    0.2887035 
     100    197.61069    122.50244    125743.51   -41016.463    2412.1185   -43428.582   0.49428923 
     150    218.78225    25.954237    125750.93   -40493.779    2670.5474   -43164.326   0.71569581 
     200    235.59206   -128.55513    125855.13   -40078.065     2875.735     -42953.8   0.99027489 
     250    244.01287    23.863369    125687.45   -39762.234    2978.5229   -42740.757    1.2725328 
     300    253.91543   -60.264695    125701.83   -39452.368    3099.3977   -42551.766    1.5996506 
     350    262.25085   -284.33492    125297.12   -39246.084    3201.1433   -42447.227    1.9820533 
     400    263.45155   -226.17295    124916.24    -39052.23    3215.7995   -42268.029    2.3661935 
     450    269.50754   -211.79507    124619.85   -38834.604    3289.7215   -42124.326    2.7374297 
     500    274.84959   -147.65701    124351.31   -38702.946    3354.9287   -42057.875    3.2147824 
     550    282.50434   -121.65898    124064.22   -38493.622    3448.3659   -41941.987    3.7124472 
     600    285.98917   -178.32246    123928.53   -38339.221    3490.9031   -41830.124    4.2946781 
     650    283.32386    1.9021505    123657.56   -38271.731    3458.3692     -41730.1    4.9084616 
     700    284.82108   -98.940014    123524.97   -38184.706    3476.6449   -41661.351    5.5278549 
     750    283.40738     42.50204    123317.49   -38107.306    3459.3887   -41566.694    6.1573171 
     800    289.27377   -76.515964    123253.48   -37985.685    3530.9964   -41516.681    6.7999434 
     850    285.77315  -0.29191373    123327.23   -37948.733    3488.2663       -41437    7.6369507 
     900    289.70433    121.82243    123478.04   -37868.447    3536.2519   -41404.699    8.5337074 
     950    287.63654   -66.005018    123369.94   -37885.534    3511.0116   -41396.545    9.4682529 
    1000    287.27142    -249.5512    123111.21   -37869.396    3506.5547   -41375.951    10.392762 
    1050    290.92636   -273.21968    123049.29   -37840.802    3551.1686    -41391.97     11.21277 
    1100     292.3799   -66.569984    123077.73   -37762.375     3568.911   -41331.286    12.007988 
    1150    291.83331   -251.79911    122865.63   -37781.928    3562.2391   -41344.167    12.765893 
    1200    296.12344    256.77708    122806.66   -37700.685    3614.6063   -41315.291    13.675742 
    1250    294.14482    90.334474    122979.39   -37699.335    3590.4543   -41289.789    14.613679 
    1300    303.70124   -141.22736    122969.91   -37626.216     3707.104    -41333.32    15.540673 
    1350    294.64424   -30.176647    122984.42   -37698.231    3596.5505   -41294.782    16.538026 
    1400    293.01025    13.986691    122906.24   -37660.776    3576.6053   -41237.382    17.416548 
    1450    295.14757    78.591323    123027.38   -37733.361    3602.6944   -41336.056    18.298722 
    1500    291.47441   -70.891922    123167.12   -37698.098    3557.8582   -41255.956    19.165049 
    1550    293.79232    69.912806    123129.54   -37635.874    3586.1516   -41222.026    20.065565 
    1600    296.03233   -57.489768    123073.28   -37620.878    3613.4942   -41234.372    20.970128 
    1650    299.34848   -79.567904     123070.4   -37597.552    3653.9724   -41251.525    21.869185 
    1700    301.50586   -238.43961    122931.09   -37627.409    3680.3063   -41307.715    22.599619 
    1750    303.01401    128.67709    122806.62   -37592.781    3698.7154   -41291.496    23.493762 
    1800    295.02178    12.150554    122708.74   -37596.102     3601.159   -41197.261    24.551364 
    1850    304.01514    47.324424    122815.44    -37561.89    3710.9356   -41272.825    25.469046 
    1900    302.97927    180.34448    123029.38   -37523.491    3698.2914   -41221.782    26.500976 
    1950    299.49972   -31.217171    123258.85   -37489.727    3655.8185   -41145.546    27.563762 
    2000     300.1783   -67.910988    123094.86   -37464.918    3664.1015    -41129.02    28.447957 
    2050    301.35507   -8.2543876    123002.21    -37617.99    3678.4657   -41296.455    29.334325 
    2100    301.67222    40.106352    123077.68   -37651.513    3682.3369    -41333.85    30.030591 
    2150    303.05724   -159.61033    123096.48   -37641.785    3699.2431   -41341.029    30.904498 
    2200    297.36969    141.72269    123187.22   -37625.562    3629.8185   -41255.381    31.933887 
    2250    298.57663    -87.02508    123085.76    -37585.64    3644.5509   -41230.191    32.900511 
    2300    295.60036   -88.142963    123043.68   -37572.034    3608.2213   -41180.255    33.905941 
    2350    301.81488   -32.230041    123067.28   -37583.617    3684.0783   -41267.695    34.743325 
    2400    298.31854   -73.533746     123156.5   -37596.511    3641.4005   -41237.912    35.829935 
    2450    296.00124    129.94988    123038.17    -37579.78    3613.1146   -41192.895    36.731754 
    2500    297.29535    95.732268    122922.84   -37610.856    3628.9111   -41239.767    37.459317 
    2550    295.10133   -72.289687    123104.93   -37564.559      3602.13   -41166.689    38.504156 
    2600    296.09106   -108.25819    122917.87   -37618.883    3614.2111   -41233.094    39.324375 
    2650    303.89914    168.47617    123028.76   -37558.802    3709.5196   -41268.321    40.268976 
    2700    295.70999    128.09998    122969.91   -37612.464    3609.5594   -41222.023    41.345471 
    2750    298.35393   -90.655527    123016.51   -37566.557    3641.8325    -41208.39    42.315937 
    2800    298.59458    6.7465411    122821.73   -37508.111      3644.77   -41152.881     42.94516 
    2850     302.5687    44.361862    122780.26   -37462.831    3693.2798   -41156.111     43.84801 
    2900    304.96624     191.8326    123008.42   -37509.261    3722.5451   -41231.806     44.79194 
    2950     299.2205   -164.48128    122896.06   -37542.555    3652.4102   -41194.965    45.687946 
    3000    294.36342    234.45265    122944.86   -37567.801    3593.1227   -41160.924    46.648763 
    3050    298.16875    92.164766    122977.08   -37550.354    3639.5721   -41189.926    47.457613 
    3100    303.95315   -29.627913    123090.32   -37552.942    3710.1789   -41263.121    48.395137 
    3150    298.82539    223.91659       123315   -37544.105    3647.5874   -41191.692     49.59022 
    3200    298.37386    64.819276     123258.1   -37641.439    3642.0758   -41283.515    50.533008 
    3250    288.04274    113.68769    123082.98   -37740.399    3515.9699   -41256.368    51.339726 
    3300     294.8902   -43.755904     123053.3   -37728.619    3599.5528   -41328.172    52.148534 
    3350      296.956    -210.1652    122949.25     -37709.2    3624.7688   -41333.969    52.930858 
    3400     295.4472     76.68323    122959.21   -37685.468    3606.3518    -41291.82    53.787221 
    3450    297.42903   -95.436655    122958.74   -37657.842    3630.5428   -41288.385    54.860839 
    3500    300.21939   -127.89902    122742.12   -37678.347    3664.6032    -41342.95    55.760196 
    3550     300.2149   -2.0677408    122406.41   -37685.789    3664.5483   -41350.338    56.693203 
    3600    295.88216    56.386511    122311.43   -37704.038    3611.6611   -41315.699    57.726768 
    3650    300.18167    140.63232    122565.12   -37701.339    3664.1427   -41365.482    58.902636 
    3700     299.9497   -184.83838    122528.25   -37656.235    3661.3112   -41317.546    60.057108 
    3750    294.84064    92.855215    122592.76   -37635.784    3598.9478   -41234.732    61.204952 
    3800    303.12957   -4.0573617    122571.06   -37637.386    3700.1259   -41337.512    62.366515 
    3850    296.16686    15.769508    122491.79   -37609.343    3615.1362   -41224.479    63.331919 
    3900    296.25721      4.73823    122552.88    -37635.03    3616.2391   -41251.269    64.533775 
    3950    296.75667    151.20132    122597.39    -37658.82    3622.3357   -41281.156    65.367747 
    4000    302.99685   -226.43326    122462.42   -37677.645    3698.5059   -41376.151    66.384332 
    4050     296.3836    43.766255    122479.76   -37733.138    3617.7819   -41350.919    67.520996 
    4100    295.21789    196.38636     122562.6    -37689.81    3603.5527   -41293.362    68.777308 
    4150    295.68591   -25.428387    122611.99   -37633.275    3609.2655    -41242.54     70.13756 
    4200    295.20782   -66.271053     122527.4   -37636.461    3603.4298   -41239.891    71.433484 
    4250    293.47632   -46.225379    122578.48   -37686.795    3582.2944    -41269.09    72.734219 
    4300     293.9237     20.52578    122439.89   -37763.729    3587.7553   -41351.485    73.635729 
    4350    303.61471   -87.806407    122667.26   -37632.378    3706.0478   -41338.426    74.805091 
    4400    297.82468    -93.70791    122655.69   -37654.723    3635.3723   -41290.095    75.780624 
    4450    299.79011   -39.596475    122681.66   -37691.483    3659.3631   -41350.846    76.912319 
    4500    300.31337    160.63577    122840.23   -37717.012    3665.7502   -41382.763    78.212845 
    4550    294.50474    40.142581    122993.09   -37753.529    3594.8478   -41348.376    79.215596 
    4600     293.8825   -6.4054601    123044.47   -37749.393    3587.2524   -41336.645    80.294656 
    4650    296.13604   -149.57042    122963.52   -37720.695    3614.7601   -41335.455    81.291592 
    4700    297.94016   -86.004325    122919.66   -37664.349    3636.7818   -41301.131    81.917272 
    4750    301.22397   -83.298657    123014.46   -37601.521    3676.8654   -41278.387    82.942551 
    4800    299.67477    6.9321974    123050.12   -37568.466    3657.9553   -41226.421     83.97325 
    4850    301.90127   -103.20275    123182.47   -37582.699    3685.1328   -41267.832    84.821247 
    4900    302.10537     164.9987    123131.33   -37517.961    3687.6242   -41205.586    85.885529 
    4950    299.62084      140.383    123065.03   -37535.138     3657.297   -41192.435    87.478641 
    5000      296.843   -226.64925     123022.3   -37629.941    3623.3895    -41253.33    88.573394 
    5050    296.46969     207.6273    123045.88   -37568.728    3618.8327    -41187.56    89.333982 
    5100    296.18581   -131.17737    123270.36   -37533.966    3615.3676   -41149.334    90.207858 
    5150    300.37992   -90.854011     123164.8   -37509.188    3666.5626   -41175.751    91.225764 
    5200    299.01065   -253.54983    122862.49    -37615.61    3649.8487   -41265.459    92.192461 
    5250    290.88165    -81.78042    122695.52   -37703.687    3550.6227    -41254.31    93.199546 
    5300    297.96142   -99.688257    122709.26   -37707.413    3637.0414   -41344.454    94.411014 
    5350    291.53987   -317.58044    122731.09   -37741.766    3558.6573   -41300.423    95.353456 
    5400    294.90148    23.358878    122671.66    -37661.63    3599.6905   -41261.321    96.479938 
    5450    295.83638   -226.20925    122564.82   -37631.381    3611.1023   -41242.483    97.751308 
    5500    297.07839   -72.615428    122528.97   -37619.289    3626.2627   -41245.552    98.831024 
    5550    295.49405    24.215964    122542.89   -37705.738    3606.9236   -41312.662    100.01367 
    5600    300.36145     106.7822    122656.45   -37670.635    3666.3372   -41336.972    101.19145 
    5650    299.13645    18.582412    122558.25   -37675.369    3651.3843   -41326.754    102.23239 
    5700    299.82495    139.27159    122624.92   -37676.068    3659.7884   -41335.856    103.20696 
    5750    295.38898    115.23722    122626.51   -37677.516    3605.6411   -41283.157    104.25764 
    5800    295.56345   -116.88109    122829.57   -37621.559    3607.7707   -41229.329    105.75783 
    5850    297.64291    313.34044    122821.61   -37708.504    3633.1536   -41341.658    106.49485 
    5900    294.85071   -90.659134    122811.93    -37726.21    3599.0707    -41325.28    107.52347 
    5950    290.94584    94.658774    122790.29    -37739.61    3551.4063   -41291.017    108.32027 
    6000     301.8555   -254.91823    122772.79   -37702.637    3684.5742   -41387.211    108.85168 
    6050    289.58274   -51.933581    122653.03   -37782.507    3534.7677   -41317.275    109.39077 
    6100    296.58703   -104.96344    122666.72   -37780.796     3620.265   -41401.061    110.09812 
    6150    295.44046    43.680212    122636.83   -37774.861    3606.2695   -41381.131    110.98252 
    6200    291.03918    184.57587     122533.6   -37756.663    3552.5456   -41309.209    112.14219 
    6250    298.42537   -34.841194    122751.17   -37670.443    3642.7046   -41313.147    113.04634 
    6300    296.23894    204.81033     122827.2   -37645.974    3616.0161    -41261.99    113.97629 
    6350    295.96128    37.465239    122985.36   -37687.417    3612.6269   -41300.044    114.71827 
    6400     297.7657   -13.185717     122927.1   -37703.939    3634.6523   -41338.591    115.46479 
    6450    292.91237   -39.204206    123096.17   -37731.441    3575.4106   -41306.851    116.03966 
    6500    299.64418   -84.828312    122894.36    -37708.68    3657.5818   -41366.262    116.99232 
    6550    291.70201     45.10365    122915.97   -37768.079    3560.6365   -41328.715    117.90359 
    6600     293.1681    188.22176    123209.88   -37702.979    3578.5321   -41281.511    118.87556 
    6650    300.41801   -118.61503    123036.97   -37730.293    3667.0276   -41397.321    119.52312 
    6700    291.60947    228.49258    123054.24   -37778.197    3559.5069   -41337.704    120.29605 
    6750    294.43309     64.78543    123012.04   -37781.373    3593.9731   -41375.346    121.06385 
    6800      296.449    58.779875    123116.96   -37736.874    3618.5802   -41355.455    121.95475 
    6850     291.1536    206.88714    123235.03   -37662.242    3553.9424   -41216.185    122.83641 
    6900    294.74249   -68.207044    123059.67   -37621.927    3597.7497   -41219.677    123.72373 
    6950    297.57006   -191.95614    123008.47   -37652.565    3632.2643    -41284.83    124.68725 
    7000    296.25236    104.52665    122949.83   -37616.037    3616.1799   -41232.217    125.50085 
    7050    299.80565   -46.632074    122954.01   -37668.593    3659.5528   -41328.146     126.5697 
    7100    300.56814    235.14992     123058.4   -37644.941    3668.8601   -41313.801    127.80595 
    7150    295.25318   -99.176167    123171.57   -37674.713    3603.9834   -41278.696    128.78918 
    7200    288.63613   -245.93532    122990.42   -37743.169     3523.213   -41266.382    129.18947 
    7250    285.97481    4.2503539    122868.16   -37803.278    3490.7278   -41294.006    129.99279 
    7300    292.52504    95.062506     122772.7   -37790.682    3570.6826   -41361.365    130.80437 
    7350    289.66417    63.503398    122726.33   -37729.376    3535.7617   -41265.138    131.59961 
    7400     301.6066    11.188524    122878.93   -37688.694    3681.5359    -41370.23    132.78156 
    7450    297.51933   -140.41023    122806.82    -37630.03     3631.645   -41261.675    134.00132 
    7500     298.1066    58.931253    122666.71   -37628.038    3638.8135   -41266.852    135.32234 
    7550    302.60752    21.424706    122723.12    -37684.72    3693.7536   -41378.474    136.61345 
    7600    297.71109    -5.709642    122926.91   -37619.229    3633.9858   -41253.215    137.69789 
    7650    298.45562    211.56702     123035.9   -37637.186    3643.0738    -41280.26    138.56292 
    7700    297.76569   -21.301377    123129.22   -37710.602    3634.6523   -41345.255     139.6758 
    7750     299.6546   -46.406392    122881.94   -37732.298     3657.709   -41390.007    140.42078 
    7800    296.08936    185.57823    122768.31   -37789.088    3614.1903   -41403.278    141.20245 
    7850    297.65478   -150.48799     122921.4     -37757.4    3633.2984   -41390.698    142.40798 
    7900    295.80815    116.13274    122870.97   -37750.634    3610.7577   -41361.392    143.30918 
    7950    295.11301     59.67562    123058.89   -37705.267    3602.2725   -41307.539    144.18875 
    8000    298.45211    66.475951    123084.82   -37649.277     3643.031   -41292.308    144.79238 
    8050    302.20723    23.621806     123126.5   -37681.026    3688.8675   -41369.893    145.79329 
    8100    302.76957    60.517181    123099.14   -37608.515    3695.7317   -41304.247    146.60663 
    8150    299.89361   -210.79714    122952.22   -37657.368    3660.6265   -41317.994    147.42975 
    8200      301.325    267.63972    123068.84   -37629.683    3678.0987   -41307.782    148.24705 
    8250     299.7671   -67.298577    123181.93   -37631.945    3659.0822   -41291.027    149.34566 
    8300    302.18659   -170.27122    123104.36   -37561.324    3688.6156    -41249.94    150.24919 
    8350    305.40614    81.847976    123167.06   -37506.385    3727.9147   -41234.299    151.74657 
    8400    298.16145    164.40711    123241.29   -37527.985     3639.483   -41167.468     152.8433 
    8450    298.06302   -154.38005    123145.15   -37587.135    3638.2816   -41225.417    153.74767 
    8500    299.67692   -20.616405    123159.12   -37613.155    3657.9814   -41271.137    155.03102 
    8550     300.1613   -104.28224    123114.63   -37622.059    3663.8941   -41285.953    156.14046 
    8600    294.87763    119.15688    123085.03   -37623.172    3599.3994   -41222.572    156.94566 
    8650    301.71232   -304.71641    122894.44   -37579.833    3682.8264    -41262.66    158.06181 
    8700    304.03944    34.015684     122653.1   -37603.557    3711.2322   -41314.789    158.98695 
    8750    298.66283   -130.61763    122740.19   -37623.519    3645.6031   -41269.123    159.95445 
    8800      301.278   -167.83694    122645.21   -37621.259     3677.525   -41298.784    160.87015 
    8850    295.64349   -144.77633    122492.57   -37655.997    3608.7478   -41264.745    161.70473 
    8900     300.0581   -51.555846     122527.3   -37681.233    3662.6344   -41343.867    162.52721 
    8950    296.83174   -410.12089    122510.75   -37696.607     3623.252   -41319.859    163.51898 
    9000    296.96851   -84.512855    122486.97   -37619.353    3624.9215   -41244.274    164.64635 
    9050     295.9884    41.588306    122544.54   -37637.607    3612.9579   -41250.565     165.8518 
    9100    295.25424   -42.686267    122483.85    -37658.96    3603.9964   -41262.956    166.80154 
    9150    302.27164     94.73315    122673.95   -37590.931    3689.6538   -41280.585    167.84819 
    9200     304.9012   -129.85945    122740.83   -37551.721    3721.7513   -41273.473    168.71035 
    9250    301.43816   0.74583292    122771.04   -37617.515      3679.48   -41296.995    169.40295 
    9300    297.56813   -20.894754    122774.13   -37696.516    3632.2407   -41328.756    170.10586 
    9350    295.52592   -172.43741    122732.68   -37692.256    3607.3127   -41299.569    171.04184 
    9400    296.89916   -24.365673     122645.8   -37656.976    3624.0749   -41281.051    172.21327 
    9450    294.76411    78.195248     122578.2   -37660.536    3598.0137   -41258.549    173.32689 
    9500    297.54238    -73.40312    122504.48   -37698.943    3631.9264   -41330.869     174.6615 
    9550    291.49475    44.784815    122543.14   -37708.196    3558.1065   -41266.303    175.80379 
    9600    294.24686     214.1357    122555.41   -37699.774       3591.7   -41291.474    176.83226 
    9650    295.40833   -86.041224    122704.28   -37620.639    3605.8773   -41226.516    178.08808 
    9700    300.37742     95.62873    122487.55   -37584.905    3666.5321   -41251.437     179.2739 
    9750    298.56689    294.62286    122744.95   -37563.897     3644.432   -41208.329    180.22009 
    9800    307.11066   -153.02395     122803.9   -37543.125    3748.7209   -41291.846    180.99308 
    9850     298.9231   -131.29095    122883.78   -37556.947    3648.7801   -41205.727    181.81244 
    9900    300.45419   -58.392427     122924.9   -37572.661    3667.4692    -41240.13    182.80352 
    9950    298.52006    6.4770312    122873.17   -37560.835    3643.8604   -41204.696    183.90102 
   10000    295.11673    73.761094    122917.41   -37597.296    3602.3179   -41199.614      184.749 
   10050    292.74366    256.70826    122896.79   -37539.315    3573.3512   -41112.667    185.32044 
   10100    299.89192   -46.446521    123036.09   -37530.822    3660.6059   -41191.428    185.98686 
   10150    306.75153   -31.546691    123003.15   -37476.733    3744.3372    -41221.07    187.06363 
   10200    301.65281   -102.80079    122871.87   -37501.481       3682.1   -41183.581    187.89304 
   10250    304.05729    -12.29569    122936.77    -37536.99    3711.4502    -41248.44    188.78531 
   10300    304.84938    47.172253    123120.62   -37517.812    3721.1187   -41238.931    189.62605 
   10350    308.15627   -140.76658     123136.4   -37515.668     3761.484   -41277.152    190.33981 
   10400    307.51276   -52.230439    123169.26   -37539.223    3753.6291   -41292.852    191.23407 
   10450    297.30986    114.52722    123229.87    -37620.97    3629.0882   -41250.059    192.13583 
   10500    300.28565   -73.525807    123084.84   -37602.259    3665.4119   -41267.671    193.17927 
   10550    300.18918    121.25186    123065.22   -37582.148    3664.2343   -41246.382    193.65775 
   10600    295.20691   -122.74302    122887.06   -37617.363    3603.4187   -41220.782    194.24206 
   10650    301.72537    -68.48727    122764.88   -37630.902    3682.9857   -41313.888    194.54718 
   10700    296.70237   -219.95549    122666.35   -37649.749    3621.6729   -41271.422     195.1999 
   10750    292.74159    73.660166    122590.12   -37657.836     3573.326   -41231.162    195.68352 
   10800    292.11353    62.775727    122726.82   -37754.281    3565.6596   -41319.941    196.77178 
   10850    300.54192    86.407367    122902.73    -37751.69    3668.5401    -41420.23    197.89682 
   10900    293.34243   -223.82541     122917.9   -37733.989      3580.66   -41314.649    199.11051 
   10950    293.29052    10.581684    122848.13   -37764.206    3580.0265   -41344.232    199.67565 
   11000    294.51868    37.177862    122940.48   -37746.725    3595.0178   -41341.742    200.39497 
   11050    295.90401   -67.782206     123073.1   -37681.517    3611.9277   -41293.445    201.49454 
   11100    299.55971   -2.0139316    123004.17   -37678.334    3656.5508   -41334.885    202.40534 
   11150    294.06742   -80.354726    123053.18   -37729.664    3589.5096   -41319.173     203.8213 
   11200    293.93642    67.018039    123134.14   -37789.042    3587.9106   -41376.952    205.18295 
   11250    295.92101    2.2344975    123242.96   -37790.223    3612.1352   -41402.358    205.82766 
   11300    296.91124    123.37574    123129.18   -37721.127    3624.2225   -41345.349    206.09423 
   11350    292.90321   -273.64818    123109.62   -37750.657    3575.2987   -41325.955    207.63348 
   11400    299.47009    227.95135    123131.53   -37690.984    3655.4569   -41346.441    208.62287 
   11450    300.57964    22.964294    123250.31   -37656.366    3669.0005   -41325.367    209.70218 
   11500     298.1709   -102.80122    123225.09   -37583.759    3639.5984   -41223.358    210.72561 
   11550    306.20091    53.143456    123073.13   -37503.986     3737.616   -41241.602    212.00554 
   11600    297.27819   -321.66325    123131.81   -37568.374    3628.7016   -41197.076    213.45997 
   11650    304.00134    -53.23605    123013.72   -37475.212    3710.7672   -41185.979     214.0647 
   11700    307.12307    -62.47991    122845.33   -37433.652    3748.8723   -41182.524    214.43546 
   11750    303.61552    53.287536     122685.2   -37446.308    3706.0577   -41152.366    214.90171 
   11800    299.48226    49.071469    122726.38   -37508.787    3655.6054   -41164.392     215.8948 
   11850     300.2819    85.397594     122833.2   -37515.807    3665.3661   -41181.173    216.54318 
   11900    297.17814   -29.231108     122861.2   -37531.541    3627.4804   -41159.022    217.26288 
   11950    306.49319   -81.365218    122897.85   -37514.099    3741.1837   -41255.283    218.13442 
   12000    306.33404    112.13247    122888.08   -37496.197    3739.2411   -41235.438    218.99883 
   12050    298.91288    80.263659    122903.53   -37549.499    3648.6554   -41198.154    219.85239 
   12100    302.09103    152.75006    123069.63   -37580.825    3687.4492   -41268.274    220.87227 
   12150    293.86028   -157.87877    123017.12   -37589.062    3586.9812   -41176.043    221.57302 
   12200    298.80741    10.871187    122912.13   -37576.641    3647.3679   -41224.009    222.55564 
   12250    298.60636   -47.770697    122906.82   -37585.305    3644.9138   -41230.218    223.23748 
   12300    299.45251   -42.022735    122793.59   -37635.106    3655.2423   -41290.349    223.93306 
   12350    296.50057   -85.360047    122936.27   -37629.518    3619.2096   -41248.728    224.36036 
   12400    297.43351   -52.316796    122914.07   -37589.955    3630.5976   -41220.553     225.3658 
   12450    297.18929   -16.031748    122824.52   -37578.798    3627.6164   -41206.415    226.24773 
   12500    301.66011   -356.43306    122626.97   -37520.754    3682.1892   -41202.943    227.28701 
   12550    300.21286    141.51737    122668.91     -37469.4    3664.5234   -41133.923    228.87007 
   12600    303.19113     41.12949    122732.02   -37505.018    3700.8774   -41205.895    229.96271 
   12650    300.16934    1.1011167    122694.63   -37536.941    3663.9922   -41200.933    230.57049 
   12700     297.6287    156.89918    122713.06   -37539.072    3632.9801   -41172.052    231.76461 
   12750    301.76545   -27.733171    122793.94   -37524.227    3683.4749   -41207.702    232.97653 
   12800    301.94402    138.66717    122811.54   -37562.376    3685.6546   -41248.031    234.16067 
   12850    299.40026    14.866386    122667.12   -37565.346    3654.6045   -41219.951     234.9536 
   12900    297.40593   -2.5813936    122670.25   -37603.571    3630.2609   -41233.831    235.81257 
   12950    296.24037   -33.144523    122645.22   -37607.277    3616.0335   -41223.311    236.99748 
   13000    294.16805    115.73766    122672.21   -37630.968     3590.738   -41221.706    238.59167 
   13050    304.92387    35.974752    122778.97   -37636.129    3722.0279   -41358.157    239.13113 
   13100    294.81903   -71.577175    122973.84   -37647.695    3598.6841    -41246.38    240.30009 
   13150    290.63988    -23.55932    122825.53   -37703.483    3547.6716   -41251.154    241.07416 
   13200    294.57153   -127.96461     122837.9   -37723.365    3595.6629   -41319.028    242.13207 
   13250    295.80725    -113.0119    122939.87   -37721.514    3610.7468    -41332.26    243.08124 
   13300    289.19031    -125.4657    122934.68   -37779.022    3529.9775   -41308.999    243.93856 
   13350    294.94718    7.2762912    122828.91   -37786.315    3600.2483   -41386.564    245.01703 
   13400    288.62257   -240.59907    122961.76   -37836.296    3523.0475   -41359.343    246.43257 
   13450     294.4456    171.46656    122967.62   -37745.056    3594.1259   -41339.182    247.44778 
   13500    298.73618   -9.5644419    122960.34   -37746.732    3646.4984    -41393.23    248.23537 
   13550    300.92814    150.80426    123037.94   -37713.743    3673.2544   -41386.998    249.03731 
   13600     293.0372   -62.275599    123125.81   -37719.119    3576.9343   -41296.053    249.71659 
   13650    294.86938   -243.88659    122971.23   -37767.818    3599.2986   -41367.116    250.60864 
   13700    293.10438     25.23174    123035.46   -37735.712    3577.7543   -41313.467    251.38575 
   13750    296.37038   -213.89935    123064.42    -37661.77    3617.6206    -41279.39    252.28011 
   13800    294.62265    161.04723    122923.96   -37679.801    3596.2869   -41276.088    253.44886 
   13850    298.41952    78.404954    122943.48   -37676.531    3642.6332   -41319.164    254.45405 
   13900    302.00409    1.2775617    123033.16   -37649.762    3686.3879   -41336.149    255.73795 
   13950    300.87935    9.4856858    122968.76   -37569.238    3672.6589   -41241.896    256.92083 
   14000    299.38203   -78.164595    122947.79   -37545.583    3654.3819   -41199.965    257.92841 
   14050    299.55219   -55.729572    122650.12   -37588.899     3656.459   -41245.358    258.76515 
   14100    301.52336    109.70203    122674.46   -37637.846    3680.5199   -41318.366    259.62313 
   14150    293.64093    130.61347    122839.43   -37649.356    3584.3037    -41233.66    261.24401 
   14200    298.33107    73.791611    122992.69   -37604.929    3641.5535   -41246.482    262.53782 
   14250    299.61574   -71.842173    122921.02   -37583.441    3657.2348   -41240.675    263.27787 
   14300    295.63892   -77.189478    123100.83   -37636.545     3608.692   -41245.237    264.48629 
   14350    296.96897   -82.939997     122998.2   -37669.266    3624.9271   -41294.193    265.08894 
   14400    300.82072   -137.09673    122913.47   -37691.988    3671.9432   -41363.931    265.87693 
   14450    297.16938    138.82788    122785.33   -37713.216    3627.3735    -41340.59    267.01248 
   14500     294.9272    141.40369    122810.84   -37708.344    3600.0044   -41308.348    268.04782 
   14550    293.50275    61.156451     122885.8   -37757.993     3582.617    -41340.61    269.32984 
   14600    295.62721   -199.44024    122984.99   -37709.416     3608.549   -41317.965    271.11204 
   14650     289.3748   -53.992311    122896.36   -37692.373    3532.2295   -41224.603    272.21919 
   14700    297.28576    41.162611    122816.01   -37661.044     3628.794   -41289.838    273.36183 
   14750    300.98722   -20.883247    122941.57    -37552.46    3673.9755   -41226.436    274.74962 
   14800    300.88751    -19.54139    123040.02   -37614.239    3672.7585   -41286.997    276.43459 
   14850    293.58089   -163.16536    123007.52   -37634.226    3583.5708   -41217.797    277.24755 
   14900    300.50296   -149.52594    122871.57   -37595.419    3668.0644   -41263.484    277.55792 
   14950    300.73499    39.905114     122782.2   -37664.568    3670.8967   -41335.464    278.03086 
   15000    297.87689   -48.072236     122633.8   -37659.817    3636.0096   -41295.827    278.59024 
   15050     298.3979    138.26129    122592.21   -37645.907    3642.3692   -41288.276    279.64676 
   15100    297.13583    -117.3997       122654   -37679.286    3626.9639    -41306.25     280.4665 
   15150    296.65194    188.17271    122735.58   -37667.696    3621.0573   -41288.753    281.15205 
   15200    301.32653    42.368124    122709.11   -37631.283    3678.1173     -41309.4     282.4793 
   15250    297.89673    161.43392    122783.25   -37633.659    3636.2517    -41269.91    283.72946 
   15300    300.48017    -15.19722    122843.06   -37671.323    3667.7864   -41339.109    284.71812 
   15350    294.19814    40.123129    122710.28   -37670.195    3591.1052     -41261.3    285.93187 
   15400    295.53219   -123.57787    122798.51   -37697.847    3607.3892   -41305.236    287.09037 
   15450     299.8026   -122.37539    122660.59   -37674.565    3659.5156   -41334.081    288.01721 
   15500    298.30395    68.055504    122728.65   -37631.906    3641.2225   -41273.128    288.92742 
   15550    303.98355   -26.930807    122601.33   -37541.105      3710.55   -41251.655    289.57689 
   15600    307.23838    -11.83956     122680.6   -37536.786    3750.2799   -41287.066    290.97355 
   15650    307.02922   -99.557757    122685.88   -37530.686    3747.7267   -41278.413    291.85046 
   15700    305.04875    41.796799    122755.59   -37532.707    3723.5523   -41256.259    293.02807 
   15750     302.0304    204.98065    122855.35   -37507.276    3686.7091   -41193.985    294.51698 
   15800    304.59553   -121.02327    122944.41   -37534.631    3718.0201   -41252.651    295.55857 
   15850    303.29995   -64.804235    122834.48   -37552.429    3702.2057   -41254.634    296.43783 
   15900    296.33892   -39.875773    122909.02   -37524.002    3617.2364   -41141.239    297.47381 
   15950    298.76913    200.01222    123076.22   -37531.156    3646.9006   -41178.057    298.41007 
   16000    302.05876   -42.928553    123173.56   -37562.146    3687.0552   -41249.201    299.93905 
   16050    294.51704     65.61523    123000.06    -37629.23    3594.9978   -41224.228    300.39859 
   16100    297.52938   -209.80665     122933.6   -37644.072    3631.7678    -41275.84    301.12693 
   16150    306.81768    6.9165175     122964.2    -37589.88    3745.1446   -41335.024    301.81359 
   16200    298.73415   -364.67583     122967.1   -37633.863    3646.4737   -41280.337    302.73789 
   16250    292.96145    148.80153    122773.31   -37620.873    3576.0097   -41196.882    303.07615 
   16300     295.5527    168.13482    122910.69   -37629.172    3607.6395   -41236.812    303.75279 
   16350    298.04828    25.336561    123047.51   -37583.985    3638.1017   -41222.087    305.51169 
   16400    294.13971   -127.77099    122958.36   -37628.643     3590.392   -41219.035    306.61511 
   16450     298.2833    50.379156    122593.18   -37586.574    3640.9704   -41227.545    306.76131 
   16500    301.42356    195.59152    122703.24   -37566.378    3679.3017   -41245.679    307.68189 
   16550    299.94823    19.681725    122909.71   -37578.213    3661.2932   -41239.506    308.95647 
   16600    302.74503     37.13279     122986.4   -37543.934    3695.4321   -41239.366    309.11715 
   16650    293.58921   -53.217292    122952.77   -37595.124    3583.6724   -41178.797    310.09599 
   16700    302.85586   -126.67288    123046.54   -37552.226     3696.785   -41249.011    311.03822 
   16750    304.93672   -53.771828     123137.4   -37594.637    3722.1848   -41316.821    312.34568 
   16800    299.69931   -72.767308    123037.74   -37615.772    3658.2547   -41274.027    312.88985 
   16850     293.9845    225.59007    123219.22   -37632.119    3588.4974   -41220.616    313.26756 
   16900    296.93757   -231.69291    123119.96   -37620.592    3624.5438   -41245.136    314.32955 
   16950    297.58951   -88.546749    122982.98   -37655.749    3632.5017    -41288.25     314.9145 
   17000    296.85767    34.076214    122940.24   -37686.222    3623.5685   -41309.791    316.18727 
   17050    303.09815    -103.6934    122961.07   -37581.502    3699.7425   -41281.244    317.65462 
   17100    298.74801    154.30037    122917.65   -37605.639    3646.6428   -41252.282    318.60222 
   17150    300.21825   -7.2274631    122836.43   -37673.027    3664.5892   -41337.616    319.48098 
   17200    295.41499    74.081883    123070.87   -37687.813    3605.9586   -41293.772    321.20188 
   17250      296.706   -30.300958    123080.59   -37716.351    3621.7172   -41338.068    322.43781 
   17300    297.31015   -199.07569    123026.95   -37766.551    3629.0917   -41395.643    323.05551 
   17350    292.45649   -32.076284    122838.16   -37745.338    3569.8459   -41315.184    324.01896 
   17400    296.01915    29.359995    122796.86   -37806.016    3613.3333   -41419.349    324.84679 
   17450    293.57308    183.66683    122975.72   -37698.975    3583.4755   -41282.451    325.83633 
   17500    303.61948   -93.958093    123218.28   -37667.795     3706.106   -41373.901    327.31546 
   17550    297.17938    66.142359    123328.34   -37639.205    3627.4954   -41266.701    327.88852 
   17600    296.63301   -132.70753    123095.45   -37686.348    3620.8263   -41307.174    328.21854 
   17650    301.74616   -148.03147       123077   -37675.375    3683.2396   -41358.615    328.74672 
   17700    295.64327    67.489781     122992.1   -37722.119     3608.745   -41330.864    328.61815 
   17750    293.20493   -13.744909    122891.88     -37746.8    3578.9817   -41325.782    329.07706 
   17800    290.39688   -7.4467892    122848.03   -37742.692    3544.7055   -41287.398    329.91286 
   17850    294.15304   -148.69582    122728.69   -37667.603    3590.5548   -41258.158    330.22278 
   17900    295.70141   -104.41267    122837.79   -37644.722    3609.4548   -41254.176     330.9715 
   17950    295.32434   -233.20897    122694.92   -37649.249     3604.852   -41254.101    331.83709 
   18000    300.50558    96.657776    122720.87   -37583.254    3668.0965   -41251.351    332.68938 
   18050    306.00067   -288.20098    122805.88   -37538.368    3735.1718    -41273.54    333.75174 
   18100     302.1263    98.859224    122699.79   -37548.212    3687.8796   -41236.092    334.66856 
   18150    299.95458   -22.623911    122775.97   -37596.038    3661.3708   -41257.409     335.6603 
   18200    299.66628    -168.5293    122688.96   -37641.473    3657.8517   -41299.325    336.38539 
   18250    298.29972   -21.151877    122561.21   -37619.534    3641.1708   -41260.705    337.57051 
   18300    297.51868  -0.72329094    122571.98   -37570.907    3631.6371   -41202.544    338.30083 
   18350    296.73244   -97.276938    122643.85   -37600.828      3622.04   -41222.868    339.25317 
   18400    296.74416    4.1812937     122572.2   -37680.868     3622.183   -41303.051    340.13489 
   18450    296.26954     23.64912    122545.52   -37678.841    3616.3896   -41295.231    340.81515 
   18500    298.56175    50.516069     122687.6   -37644.872    3644.3693   -41289.241    341.87968 
   18550    299.61341    118.66118    122728.01   -37618.302    3657.2063   -41275.509    343.05836 
   18600    302.49982    40.273797    122796.52   -37569.322     3692.439   -41261.761    344.24862 
   18650    294.57277    221.47838    122779.55     -37619.4    3595.6781   -41215.078    345.31561 
   18700    300.77252   -179.63978    122889.13   -37606.044    3671.3548   -41277.399    346.12894 
   18750    301.13922   -86.277095    122794.59   -37641.829    3675.8309    -41317.66    347.08201 
   18800    303.23966    35.420276    122679.79   -37655.259    3701.4697   -41356.729    347.92212 
   18850    302.23909   -1.3467375    122946.79   -37622.859    3689.2564   -41312.115     349.5388 
   18900    296.54952    156.93157    122926.07   -37624.449    3619.8071   -41244.256    350.17607 
   18950    303.04764   -142.49771    122893.42    -37590.38    3699.1259   -41289.506    351.20812 
   19000    296.92177   -15.000846    122795.63   -37609.723     3624.351   -41234.074    351.96245 
   19050    295.69036    12.648533     122856.9   -37610.511    3609.3199   -41219.831    352.82232 
   19100    301.21263    172.75603    122820.15   -37573.105     3676.727   -41249.831     353.8379 
   19150     295.1179    91.011437    123002.28    -37618.26    3602.3322   -41220.593    354.90225 
   19200    302.26017   -222.07557    122981.31   -37622.048    3689.5137   -41311.562    356.06807 
   19250    302.86043   -27.213114    122922.22   -37563.987    3696.8407   -41260.828    356.76743 
   19300    306.73143    181.74154    123091.47   -37471.255    3744.0917   -41215.347     358.0532 
   19350    295.82573    136.32686    123315.28   -37513.435    3610.9723   -41124.408     359.3211 
   19400    301.30051    124.09345    123106.96   -37531.528    3677.7997   -41209.328     360.1665 
   19450    298.45524   -61.529189    123178.95   -37542.278    3643.0692   -41185.347     360.9758 
   19500    304.57476   -145.35501    122958.87   -37505.984    3717.7666    -41223.75    361.47477 
   19550    301.45224   -93.554554    122679.19   -37512.365    3679.6518   -41192.017    362.35454 
   19600    301.54117    187.51225     122791.9    -37530.59    3680.7372   -41211.328    363.84001 
   19650    308.91083    30.972025    122821.78   -37470.194    3770.6945   -41240.889     365.0464 
   19700    301.55204    132.01901    123108.22   -37537.454      3680.87   -41218.324    366.78476 
   19750    306.94266    -120.5692     123213.7   -37519.899    3746.6701   -41266.569    367.98284 
   19800    305.28365    83.898065    123218.01   -37541.417    3726.4195   -41267.837    368.96077 
   19850    304.82529   -103.20643    123169.33   -37466.016    3720.8246    -41186.84    369.95318 
   19900     300.4424    63.941632    123187.59   -37570.075    3667.3252     -41237.4    371.47287 
   19950    292.97275    40.610874    123080.27   -37564.637    3576.1476   -41140.785    372.66001 
   20000    299.62131    170.26528     122943.4   -37605.803    3657.3027   -41263.105    373.67587 
   20050    299.96816    76.516836    123004.09   -37635.581    3661.5364   -41297.117    374.90118 
   20100      296.595   -14.788601    122970.51   -37645.311    3620.3624   -41265.673    375.95667 
   20150    303.04901   -220.66502    122859.64   -37655.325    3699.1426   -41354.468    376.69115 
   20200     297.6452   -163.08467    122890.19   -37685.723    3633.1815   -41318.905    377.34723 
   20250    297.00724   -142.36946    122792.21   -37672.459    3625.3943   -41297.853    377.75099 
   20300    295.26462    39.140197    122800.71   -37596.378    3604.1232   -41200.501    378.44355 
   20350    301.72809    -61.39125     122893.9   -37543.068    3683.0189   -41226.087    379.77657 
   20400    293.30904    65.588599    123012.58   -37588.379    3580.2525   -41168.631    380.92597 
   20450    291.97765   -3.3637902    122891.97   -37602.328     3564.001   -41166.329    381.73741 
   20500     297.9084   -84.628858    122817.58   -37630.375    3636.3943   -41266.769    382.57449 
   20550    293.25392   -81.971024    122618.22   -37688.342    3579.5797   -41267.921    383.01786 
   20600    294.05636   -110.03823    122448.59   -37671.179    3589.3746   -41260.553    384.34058 
   20650    290.98501    45.498777    122356.71   -37705.539    3551.8844   -41257.424    385.18412 
   20700    297.94227    173.50668    122593.75   -37645.311    3636.8076   -41282.119    386.36476 
   20750    303.18292    203.45867    122782.14   -37636.161    3700.7772   -41336.939    387.17338 
   20800    297.99129   -131.08408     122846.5   -37582.889     3637.406   -41220.295     388.1096 
   20850    302.98184     41.84548    122752.96   -37558.779    3698.3228   -41257.101    388.34309 
   20900    301.15091    185.52192    122834.09    -37592.19    3675.9737   -41268.163    389.88182 
   20950    301.57821   -71.914745    122858.77   -37620.254    3681.1894   -41301.443    391.46484 
   21000    295.94869    20.651402    122887.01   -37645.579    3612.4732   -41258.052    392.18442 
   21050    295.83216    121.43741    122977.52   -37598.588    3611.0507   -41209.638    393.23562 
   21100    297.57928   -136.21335    123020.83   -37573.698    3632.3769   -41206.074    394.64651 
   21150    295.16182     45.43397    123077.52   -37577.246    3602.8683   -41180.114    395.78963 
   21200    298.73177   -68.255607    123092.23   -37562.156    3646.4446     -41208.6    396.44278 
   21250    301.03068    15.152371    123157.68   -37532.493     3674.506   -41206.999    397.07246 
   21300    303.45771    123.66247    123001.22   -37539.514    3704.1314   -41243.646    397.78104 
   21350    301.13634     -76.5609    122943.63   -37589.154    3675.7958   -41264.949    398.18753 
   21400    301.28665    108.61519    122854.49   -37604.111    3677.6306   -41281.742    398.36195 
   21450    306.67142    11.900685    122967.45   -37550.721    3743.3593    -41294.08    399.14796 
   21500    307.17083   -405.13207    122922.65   -37548.588    3749.4553   -41298.043    399.27683 
   21550    299.68687    -152.3937    122814.36   -37528.448    3658.1029   -41186.551     399.6112 
   21600    301.31422   -61.646889    122864.44   -37525.292    3677.9671   -41203.259    400.91633 
   21650    297.10918    -34.82137    122691.95   -37564.777    3626.6386   -41191.415    401.19506 
   21700    299.00474   -58.422665    122535.89   -37609.992    3649.7766   -41259.768     401.9221 
   21750    295.55446    68.262234       122651   -37643.944    3607.6611   -41251.605    402.74172 
   21800    299.84576   -91.135253    122686.28   -37646.284    3660.0425   -41306.326    403.49603 
   21850    295.54295    130.95298    122774.52    -37657.57    3607.5206   -41265.091     404.8426 
   21900    302.20625   -85.262548    122915.98   -37635.986    3688.8555   -41324.841    405.88761 
   21950    305.96614   -137.06719    122969.81   -37659.815    3734.7503   -41394.566    406.45226 
   22000    300.40842     224.4924    123070.91    -37733.83    3666.9105    -41400.74    407.52878 
   22050    294.80801    41.687686    123149.47   -37683.248    3598.5496   -41281.797    408.40563 
   22100    294.28277    99.979539    123082.57   -37700.612    3592.1382    -41292.75    409.24878 
   22150    291.44373    86.596101    123106.54   -37766.913    3557.4837   -41324.396     410.0431 
   22200    288.71589     40.77756    123162.37    -37809.57    3524.1866   -41333.757    410.96499 
   22250    295.79761   -122.69045    123050.44   -37741.347     3610.629   -41351.976    411.55717 
   22300    295.67558     -48.3283    122860.84   -37719.281    3609.1394    -41328.42    411.83099 
   22350    299.03337    -55.66486    122744.92   -37628.875    3650.1261   -41279.001    412.56633 
   22400    301.44952     108.9968    122858.58   -37614.158    3679.6186   -41293.777    414.31663 
   22450    303.04421    134.78664    122813.52   -37634.721     3699.084   -41333.805    415.95227 
   22500    297.68608    25.112347    122818.36   -37631.654    3633.6805   -41265.335    417.19563 
   22550     295.2204   -48.447917    122832.74    -37636.31    3603.5833   -41239.893    418.73361 
   22600    293.16684   -18.290233    122691.18   -37630.091    3578.5167   -41208.607    419.92259 
   22650    293.27248     40.31993    122605.56    -37676.22    3579.8063   -41256.026     420.5337 
   22700    291.52567    212.95557    122719.92   -37665.414    3558.4839   -41223.898    421.33599 
   22750    301.21033    20.898909    122781.85   -37651.866    3676.6989   -41328.565    422.48764 
   22800    300.76388   -141.55975    122712.92   -37605.842    3671.2494   -41277.091     423.3627 
   22850     301.1246   -61.607464    122657.66   -37624.291    3675.6525   -41299.943    424.05621 
   22900    297.00679   -117.18838    122638.36   -37652.008    3625.3887   -41277.397    424.71155 
   22950    293.53866    -90.29336    122607.59   -37719.712    3583.0553   -41302.768    426.10956 
   23000    294.85279   -74.647614    122630.14   -37710.687    3599.0962   -41309.783    427.09558 
   23050    296.36152     115.1698    122671.35   -37715.234    3617.5123   -41332.746     428.2955 
   23100    301.17068    227.14769    122801.09   -37624.437     3676.215   -41300.652    429.33175 
   23150    296.87189    79.943429    122836.38   -37708.031    3623.7422   -41331.774    430.20429 
   23200    298.33681   -35.962028    122934.34   -37626.006    3641.6236   -41267.629    431.43561 
   23250    295.45095   -188.41238    122933.48   -37604.581    3606.3976   -41210.978    432.33055 
   23300    300.19591   -38.729835    122799.94   -37609.337    3664.3165   -41273.654    433.60916 
   23350    299.16604   -90.119005    122911.74   -37563.369    3651.7455   -41215.114    434.42673 
   23400    296.01769    35.782392    122951.77   -37575.411    3613.3154   -41188.726    435.67965 
   23450    297.60617    45.215132    123011.01    -37562.54     3632.705   -41195.245    436.68271 
   23500    293.59495   -58.584652    122770.29   -37552.957    3583.7424     -41136.7    436.80088 
   23550    309.02895   -198.55545    122800.75   -37485.934    3772.1362    -41258.07    438.83401 
   23600    301.44052    62.980023    122895.07   -37496.572    3679.5087   -41176.081    440.28222 
   23650    303.90592     155.7308    122981.99   -37532.871    3709.6024   -41242.474    441.52139 
   23700    300.22809    96.231758    123018.33   -37520.324    3664.7093   -41185.034    442.38948 
   23750    301.46035    21.796488    123155.07    -37511.94    3679.7508    -41191.69    443.04282 
   23800    299.04193   -133.80752    123181.37   -37516.449    3650.2305   -41166.679    443.55487 
   23850    301.68418   -108.68075    123256.03   -37587.965    3682.4829   -41270.448    444.93581 
   23900    295.15382    25.316651     123358.3   -37606.775    3602.7707   -41209.546    446.48414 
   23950    295.29867   -60.896703    123141.25   -37573.343    3604.5388   -41177.882    446.78934 
   24000    300.13061    14.325884    123139.07   -37560.971    3663.5194   -41224.491    447.86424 
   24050     294.5078   -4.9890278    123076.33   -37539.692     3594.885   -41134.577    448.81594 
   24100    300.72675    89.248666    123014.89   -37532.318    3670.7961   -41203.114    449.80215 
   24150    300.53472   -58.603073    123183.96   -37525.516    3668.4522   -41193.969    452.22133 
   24200    297.47985   -1.4315213    123121.63   -37594.749    3631.1631   -41225.912    453.03323 
   24250    297.26642    101.09176    123256.02   -37627.857    3628.5579   -41256.415    454.14965 
   24300     296.6263   -173.31114    123156.28    -37656.95    3620.7443   -41277.694    455.10648 
   24350    298.84811   -140.89428    122912.99   -37675.728    3647.8647   -41323.593    455.05008 
   24400    297.40104    10.237845    123142.31   -37717.225    3630.2012   -41347.426    455.90147 
   24450     298.6923   -95.401282    123025.44    -37672.12    3645.9628   -41318.083    456.56619 
   24500    299.11161     4.298079    122959.49   -37688.226    3651.0811   -41339.307    457.71067 
   24550    292.61391    31.728863    122787.42   -37711.147    3571.7674   -41282.914    458.09852 
   24600    297.27034   -318.43109    122796.28   -37749.587    3628.6058   -41378.193    458.52688 
   24650    298.78144    -226.2648     122875.6   -37743.631    3647.0509   -41390.682    459.34612 
   24700    298.33273    12.716664    122697.09   -37777.315    3641.5737   -41418.888     459.6959 
   24750    294.21728    33.429177    122651.61   -37699.664    3591.3388   -41291.003    459.74966 
   24800    296.77025    -16.91521     122638.8   -37738.618    3622.5015   -41361.119     461.0465 
   24850    298.37735    266.57074    122502.02   -37706.439    3642.1184   -41348.557    461.33553 
   24900    292.97645    104.73132    122509.56   -37769.792    3576.1928   -41345.985    461.76714 
   24950    292.06234    27.267165    122545.66   -37766.757    3565.0347   -41331.791    462.68036 
   25000    296.14561    183.35998    122633.62   -37710.383    3614.8768    -41325.26    463.68498 
   25050     292.7395   -17.970465    122624.96   -37783.196    3573.3005   -41356.497    464.64724 
   25100    291.37286   -119.22452     122517.9   -37763.586    3556.6187   -41320.205    464.83302 
   25150    291.20995    112.62825    122750.76   -37805.233    3554.6302   -41359.863    466.16692 
   25200    285.87394    -61.34243    122684.54   -37876.112    3489.4966   -41365.609    466.35046 
   25250     290.9903   -198.40112    122641.31   -37843.491     3551.949    -41395.44    467.27058 
   25300    292.68962    44.124068    122644.31   -37804.409    3572.6916   -41377.101    467.43422 
   25350    291.28938    2.1422803    122584.43   -37689.376    3555.5997   -41244.976    468.30956 
   25400     292.4893   -63.012892    122429.59   -37741.896    3570.2464   -41312.143    469.07499 
   25450    295.37479    59.520376    122456.52   -37710.437    3605.4679   -41315.905    470.31114 
   25500    296.50599    75.524834    122583.56   -37687.587    3619.2758   -41306.863    471.22092 
   25550    300.76423    45.530413    122613.73   -37626.036    3671.2536   -41297.289    472.06511 
   25600     298.9407   -41.010227    122806.26   -37555.702    3648.9949   -41204.697    473.06258 
   25650     298.7012   -158.82426    122731.73   -37615.216    3646.0715   -41261.288     474.5658 
   25700    293.10553   -65.883338       122398    -37673.22    3577.7684   -41250.988    474.65985 
   25750    289.16098    166.19631    122469.41   -37669.702    3529.6196   -41199.322    476.39846 
   25800     308.8038     99.14978     122593.4     -37549.1     3769.388   -41318.488    477.43736 
   25850    300.71263   -43.799479    122609.68   -37540.198    3670.6238   -41210.822    478.41573 
   25900    299.61822    53.784012    122818.95   -37548.621     3657.265   -41205.886    479.26316 
   25950    295.87848   -170.13428    122804.01   -37601.547    3611.6161   -41213.163    479.66586 
   26000    298.12578    37.293163    122594.84   -37549.893    3639.0477   -41188.941    479.70509 
   26050    295.53024    16.650435    122567.71   -37558.442    3607.3654   -41165.808    479.97405 
   26100    302.75618    154.57319    122718.44   -37567.733    3695.5682   -41263.301     480.7591 
   26150    299.87804   0.21839762    122840.85   -37553.392    3660.4365   -41213.828    481.95086 
   26200    299.18767   -81.363232    122914.66   -37597.917    3652.0095   -41249.926    483.70029 
   26250    294.70035   -47.705487    122843.98   -37631.124    3597.2354   -41228.359    484.39127 
   26300    300.10079  -0.50154656    122847.75   -37662.151    3663.1554   -41325.307    485.32989 
   26350    296.01589    18.559646    122947.84   -37659.413    3613.2934   -41272.706    486.95869 
   26400    293.82293   -30.604623    122866.31   -37678.718    3586.5253   -41265.243    487.92123 
   26450    303.05296   -110.75553    122790.21   -37585.128    3699.1908   -41284.319    488.48529 
   26500    299.57582   -24.090385    122865.53   -37589.736    3656.7474   -41246.484    489.88201 
   26550    299.14648   -183.66387    122875.99   -37566.252    3651.5067   -41217.758    490.14654 
   26600    298.73161   -60.067125    122765.35   -37545.359    3646.4426   -41191.802    490.73174 
   26650    300.06703    103.96624    122779.82   -37546.692    3662.7433   -41209.436    491.46459 
   26700    300.80435    166.66123    122799.67   -37514.523    3671.7434   -41186.267    492.11283 
   26750    304.31946   -3.3097646    122928.02   -37493.973    3714.6503   -41208.624    493.86151 
   26800    306.02321   -154.13967    122808.66   -37591.186    3735.4469   -41326.633    494.98411 
   26850    302.08256   -14.831262    122795.86   -37625.308    3687.3457   -41312.654    494.95962 
   26900    295.90298    120.76553    122926.17   -37560.486    3611.9152   -41172.402    495.91444 
   26950    302.18341    77.569756    122833.15   -37544.049    3688.5768   -41232.626    496.57511 
   27000    304.55372   -2.6725799    122790.56   -37574.845    3717.5097   -41292.354    497.96333 
   27050    296.89628    224.06159    122852.22   -37614.172    3624.0399   -41238.212    499.54736 
   27100    297.45624    172.41305    123131.02   -37568.359    3630.8749   -41199.234    500.47164 
   27150    302.22122   -111.79486    123174.96   -37581.787    3689.0383   -41270.826    501.06856 
   27200    297.30737   -65.841284    123085.91   -37606.976    3629.0578   -41236.034     501.4687 
   27250    302.27546    -69.93368    122985.98   -37569.212    3689.7004   -41258.912    502.36156 
   27300    298.79081    76.017014    122915.79   -37481.771    3647.1653   -41128.936    502.70414 
   27350      298.585    158.20364    123121.02    -37463.63    3644.6531   -41108.283    503.73205 
   27400    302.50783    -198.5317    122998.36   -37488.725    3692.5367   -41181.262    504.47288 
   27450     301.2702    131.50217    122995.11   -37513.124    3677.4298   -41190.554    505.52877 
   27500     297.8905   -27.313778    123012.74   -37581.483    3636.1757   -41217.659     506.7465 
   27550    294.18377    -9.939743    123198.08   -37639.755    3590.9299   -41230.684    508.00956 
   27600    296.29248   -104.90325    123043.02   -37703.097    3616.6696   -41319.766    508.63733 
   27650    295.86974    218.89763    123011.55   -37670.317    3611.5094   -41281.827     508.9704 
   27700    301.11426    4.2602781    122969.62    -37614.25    3675.5263   -41289.776    509.72263 
   27750    304.75101    57.031938     123240.6   -37535.016     3719.918   -41254.934    511.28352 
   27800    298.23321   -177.15553    123096.95   -37545.445     3640.359   -41185.804    512.39168 
   27850    299.17654     110.1441    123096.41   -37571.516    3651.8737   -41223.389    513.44069 
   27900    297.65456    41.870097    123003.44   -37650.793    3633.2957   -41284.089    514.71137 
   27950    298.63817   -246.80365    123087.18   -37645.725    3645.3021   -41291.027    516.15676 
   28000    294.46498    105.34837    123023.48   -37694.533    3594.3623   -41288.895    516.97266 
   28050    293.45599   -167.94897    122931.01    -37726.67    3582.0462   -41308.716     518.2135 
   28100    294.13167     66.56192    122873.54   -37705.159    3590.2938   -41295.453    519.33025 
   28150    298.13415    118.12296    122999.22   -37667.497    3639.1498   -41306.647    520.39027 
   28200    297.03844     36.87923     122862.5   -37681.893    3625.7751   -41307.668    520.91163 
   28250      295.417   -114.47105    122839.55   -37650.917    3605.9832     -41256.9    521.26289 
   28300    293.74792    74.154253    122802.21   -37648.118    3585.6096   -41233.728    522.27855 
   28350    297.36536    99.438792    122912.98   -37620.307    3629.7657   -41250.073     524.3813 
   28400     301.2567   -89.579322    122934.63   -37631.068    3677.2649   -41308.333    525.52578 
   28450    299.97318   -13.848529    122750.53    -37617.94    3661.5978   -41279.537    525.44893 
   28500    303.20842    34.708129       122781   -37663.601    3701.0884    -41364.69    526.47408 
   28550    300.00217   -174.93902    122737.31   -37677.823    3661.9517   -41339.775    527.17184 
   28600    297.50478   -98.629359    122763.64   -37698.079    3631.4674   -41329.546    527.85432 
   28650    297.06804   -80.622295    122764.52   -37675.678    3626.1364   -41301.814    528.25957 
   28700    295.61189     127.4423    122893.79   -37680.963     3608.362   -41289.325    530.08855 
   28750    297.98928    23.489749    122970.88   -37679.661    3637.3815   -41317.043    531.18659 
   28800    294.50566      120.439    123251.06   -37691.387    3594.8589   -41286.246    533.31287 
   28850    298.10267    -262.5384    123100.71     -37673.1    3638.7655   -41311.866    534.38018 
   28900    299.91498    82.327212    122819.29   -37688.441    3660.8874   -41349.329    535.43069 
   28950    298.57224   -66.573112    122744.12   -37661.974    3644.4973   -41306.471     536.7521 
   29000    298.82142    70.902029    122834.29   -37654.399    3647.5389   -41301.938    538.28536 
   29050    301.64151     71.47995    123009.04   -37638.534    3681.9621   -41320.496    539.45992 
   29100    298.80536   -14.587543     123121.9   -37624.624    3647.3429   -41271.967    541.22204 
   29150    298.50896    209.29007    123123.76   -37584.838    3643.7249   -41228.563    542.56305 
   29200    301.00479   -106.71649    123002.44   -37523.821      3674.19   -41198.011    543.35796 
   29250     299.1675    104.94549     122892.2   -37568.646    3651.7632   -41220.409    544.01577 
   29300    296.66087    26.629134    122889.83   -37539.732    3621.1663   -41160.898    545.15545 
   29350    302.81744   -240.71184    122750.23   -37573.133    3696.3159   -41269.449    545.96886 
   29400    295.20945   -121.06061    122812.24    -37574.68    3603.4497    -41178.13    547.50064 
   29450     300.3294   -252.09846    122727.77   -37517.613     3665.946   -41183.559    547.69822 
   29500    302.26499    28.886867    122593.84   -37538.217    3689.5725    -41227.79    548.96633 
   29550    299.37534    246.40035    122706.62   -37578.432    3654.3003   -41232.732    550.19594 
   29600    302.25352    93.422429    122759.18    -37555.29    3689.4326   -41244.722    551.83616 
   29650    302.36366   -16.904555     122804.4     -37523.9     3690.777   -41214.677    552.99146 
   29700    299.03999   -174.22888    122563.99   -37622.153    3650.2069    -41272.36    552.33554 
   29750    302.10694    99.440393    122442.49    -37675.08    3687.6433   -41362.723    552.23745 
   29800    293.98862    314.32967    122593.83   -37739.554    3588.5477   -41328.102    552.88673 
   29850    295.94436   -23.036078    122665.37   -37696.569    3612.4203   -41308.989    554.39527 
   29900    294.14403    51.190604    122540.13   -37682.284    3590.4448   -41272.728    555.56361 
   29950    291.51283    -133.2856    122552.48   -37701.545    3558.3272   -41259.872     556.8803 
   30000    297.83779   -106.83959    122422.36     -37716.5    3635.5323   -41352.033    557.65111 
   30050    297.47894    144.60086    122568.33   -37672.913     3631.152   -41304.065    558.75672 
   30100    296.79619    60.569305    122728.35   -37616.475    3622.8181   -41239.293    560.82301 
   30150       297.81    95.022373    122893.38    -37604.64    3635.1931   -41239.833    562.49898 
   30200     295.0609   -177.72401    122849.65   -37657.395    3601.6365   -41259.032    562.88857 
   30250    296.24665    231.40436    122729.53   -37640.639    3616.1102    -41256.75     563.5653 
   30300    295.40587    253.25155    122961.07   -37665.165    3605.8473   -41271.013    566.17401 
   30350    300.88517   -61.501584    123060.76   -37587.095    3672.7299   -41259.825     567.3926 
   30400    299.07847    48.004275    122979.97   -37629.195    3650.6765   -41279.871    567.91189 
   30450    295.35041   -277.48213    122874.85   -37759.487    3605.1703   -41364.657    568.74468 
   30500    291.39672    90.458914    122655.57   -37770.538    3556.9099   -41327.447    568.81277 
   30550    298.24448   -160.32279    122474.04   -37776.413    3640.4966    -41416.91    569.05402 
   30600    301.08312    26.085508    122468.98   -37726.609    3675.1461   -41401.755     570.5649 
   30650    293.53309    25.479643    122573.39   -37726.596    3582.9874   -41309.583    572.32272 
   30700    297.01637    43.988939    122647.61   -37759.705    3625.5057   -41385.211    573.42815 
   30750    297.01674   -107.46069    122461.78   -37716.972    3625.5103   -41342.483    574.05333 
   30800    297.52296   -269.02738    122446.18   -37704.132    3631.6894   -41335.821    575.18608 
   30850    302.10657    427.31498    122693.65   -37604.697    3687.6389   -41292.336    578.07008 
   30900     298.5527   -120.96659    122855.31   -37644.189    3644.2588   -41288.447    580.25677 
   30950    298.04193   -1.6433187    122786.29   -37620.932    3638.0241   -41258.956    581.06186 
   31000    298.34167   -75.259092    122929.39   -37647.349    3641.6829   -41289.032    582.99174 
   31050    300.65456   -74.627205    122858.84   -37643.531     3669.915   -41313.446    583.98723 
   31100    299.17563    99.091636    122992.44   -37654.386    3651.8626   -41306.248    585.46906 
   31150    294.88631   -326.49744    122892.89     -37656.2    3599.5054   -41255.706    586.25953 
   31200    300.07895     211.2301    122965.31     -37659.4    3662.8888   -41322.288     587.4822 
   31250    297.11796   -8.2821065    123156.78   -37628.455    3626.7457   -41255.201    589.57966 
   31300    301.26797     136.1502    123094.16    -37548.86    3677.4026   -41226.263    590.54703 
   31350    307.09975   -170.53651    123011.71   -37568.124    3748.5877   -41316.711    590.68592 
   31400    299.73452    161.45454    122998.89   -37632.097    3658.6846   -41290.781     591.7905 
   31450    294.69002   -63.968834    122828.07   -37625.762    3597.1093   -41222.871     592.3068 
   31500    300.06275    172.58617    122983.94   -37567.976    3662.6911   -41230.667    593.18144 
   31550    294.63379   -89.743032    122841.35    -37605.28    3596.4229   -41201.703     592.8506 
   31600    302.87074    24.061901    122637.72     -37597.2    3696.9666   -41294.167    593.36268 
   31650    300.76093    -5.362303    122676.15   -37626.385    3671.2134   -41297.598    594.57978 
   31700    304.05811    92.840399    122691.77   -37603.527    3711.4601   -41314.987     595.8195 
   31750    303.92177    321.07776    122849.97   -37550.465    3709.7959   -41260.261    596.69701 
   31800    301.99941   -10.991783    122910.01   -37595.269    3686.3308   -41281.599    598.21334 
   31850    298.01801   -112.35902    122859.38    -37678.69    3637.7321   -41316.422    598.93539 
   31900    300.62643   -228.28613    122642.72   -37673.247    3669.5716   -41342.818    599.42655 
   31950    296.40783    -107.1003    122785.65    -37680.35    3618.0777   -41298.428    601.23351 
   32000    300.41385   -134.30683    122732.66   -37644.921    3666.9767   -41311.898    601.84107 
   32050    294.63851   -64.067133    122742.14   -37631.889    3596.4805   -41228.369    603.14512 
   32100    297.18749   -46.157155    122682.67   -37668.759    3627.5945   -41296.354    603.47157 
   32150    295.40953    11.716301    122595.95   -37692.783    3605.8919   -41298.675    603.96299 
   32200    289.14223    -101.6538     122550.8   -37781.192    3529.3907   -41310.583    604.97229 
   32250    295.31649    92.840425     122498.5   -37793.814    3604.7563    -41398.57    605.49059 
   32300    300.91669   -21.340566    122643.99   -37764.491    3673.1146   -41437.605    607.34631 
   32350    293.90245   -101.19371    122548.57   -37774.075    3587.4959   -41361.571    607.79943 
   32400    294.61621   -80.010381    122417.36   -37775.217    3596.2083   -41371.425    608.14614 
   32450    299.98281    136.24081    122368.27   -37754.375    3661.7153    -41416.09    609.68086 
   32500    297.34604    53.190792     122587.1   -37687.943    3629.5298   -41317.473    611.12349 
   32550    291.03227    77.729027    122614.97   -37684.144    3552.4613   -41236.606    611.33977 
   32600     299.0507    232.95908    122728.69   -37619.418    3650.3375   -41269.756    612.60296 
   32650    298.01413   -1.1402645    122654.31   -37630.318    3637.6848   -41268.003    613.19883 
   32700    294.73132   -167.41271    122675.27   -37709.131    3597.6134   -41306.745    613.96096 
   32750    297.51005   -118.24307    122590.83   -37659.979    3631.5317   -41291.511    614.36501 
   32800    303.38908   -62.315968    122460.86   -37569.847    3703.2936   -41273.141    614.20971 
   32850    299.49255    245.11201    122650.63   -37566.374     3655.731   -41222.105    615.11286 
   32900    296.83755   -279.59795    122572.59   -37616.413     3623.323   -41239.735    616.08486 
   32950    299.14022   -131.18624     122345.3   -37603.422    3651.4303   -41254.853    616.43322 
   33000     299.2774   -69.203661    122363.13   -37599.032    3653.1048   -41252.137    616.78386 
   33050     298.8621    158.96098    122175.26   -37647.862    3648.0355   -41295.897    616.90058 
   33100     296.9995    17.810369    122528.72   -37607.881    3625.2998   -41233.181    618.25583 
   33150    301.38848     130.8629    122610.99   -37594.218    3678.8735   -41273.091    619.06027 
   33200    296.09797   -232.85429    122516.79   -37624.104    3614.2953   -41238.399    619.62703 
   33250     291.1101    47.333134    122466.01   -37634.998    3553.4113   -41188.409    620.36522 
   33300    294.09923    274.20963    122488.15   -37603.034    3589.8979   -41192.932    621.77349 
   33350    296.74384   -89.473956    122591.87    -37649.19    3622.1791   -41271.369    623.39696 
   33400    297.78574   -56.956198    122586.17   -37638.918     3634.897   -41273.815    623.95685 
   33450     302.0551   -56.783247    122632.33   -37677.655    3687.0106   -41364.666     625.1907 
   33500      297.606    105.61186    122531.22   -37701.756     3632.703   -41334.459    625.41959 
   33550    297.62303   -14.544614    122543.86    -37659.85    3632.9108   -41292.761    626.48982 
   33600     301.9855   -56.089641    122675.65   -37691.237     3686.161   -41377.398    627.81828 
   33650    294.85681    100.10931    122806.72   -37659.378    3599.1452   -41258.523     628.8827 
   33700    296.38773    180.92373       122762   -37653.256    3617.8323   -41271.088    629.62985 
   33750    305.25641    126.48675    122823.98   -37552.662     3726.087    -41278.75    629.75709 
   33800    300.75194    147.49603    122863.21   -37522.598    3671.1037   -41193.701    630.73296 
   33850    304.45396    74.981933    122950.57   -37529.124    3716.2921   -41245.416    631.42756 
   33900    304.42892    16.602683    122910.51   -37505.735    3715.9865   -41221.721    632.14223 
   33950    300.90344   -92.607897    122857.66   -37582.012    3672.9529   -41254.965    633.16349 
   34000    298.73587   -228.57012    122806.05   -37670.713    3646.4947   -41317.208    634.31397 
   34050    297.31279    276.31285    122851.94    -37654.61     3629.124   -41283.734    635.74927 
   34100    296.68362   -56.411153    122952.46   -37652.853     3621.444   -41274.297    637.06202 
   34150    295.04572   -84.187343    122949.04     -37689.7    3601.4512   -41291.151    637.41114 
   34200    296.35826    -202.2674    122885.39   -37667.586    3617.4726   -41285.058    637.26793 
   34250    300.49837   -235.21064    122705.84    -37666.08    3668.0085   -41334.088    637.26226 
   34300    291.18521   -163.74405    122767.54   -37709.354    3554.3282   -41263.683    638.51344 
   34350    295.27577   -81.254836    122585.89   -37710.274    3604.2592   -41314.533    638.45424 
   34400    291.59505    225.43611    122516.46   -37685.611    3559.3308   -41244.942    639.23269 
   34450    297.27361    41.363359    122699.14    -37634.17    3628.6457   -41262.816    641.46149 
   34500    294.41785    10.116627    122787.82    -37532.76     3593.787   -41126.547    643.13944 
   34550    301.74495     153.0511    122885.11   -37451.393    3683.2247   -41134.617    644.56963 
   34600    301.42869    167.31782    122996.43   -37490.257    3679.3643   -41169.621    645.63443 
   34650    304.23989   -153.00227    122978.15   -37523.693     3713.679   -41237.372    646.87148 
   34700    297.13856   -1.2358737    122982.12   -37581.934    3626.9973   -41208.931    648.17762 
   34750    299.04401   -82.654471    123095.93    -37643.98    3650.2559   -41294.236    649.70059 
   34800    300.05198   -104.45748    123085.26   -37637.776    3662.5597   -41300.336    650.88693 
   34850    299.62294    180.52433    123086.03   -37623.758    3657.3226    -41281.08    652.00963 
   34900    300.90787   -29.522065    123195.39   -37614.682    3673.0069   -41287.688    653.30479 
   34950    301.82446   -79.826661    123288.12   -37636.034    3684.1952   -41320.229     655.1893 
   35000    299.67479   -144.92155    123014.91    -37637.24    3657.9555   -41295.196    654.92433 
   35050     302.7477     62.92163    122850.03   -37581.659    3695.4647   -41277.124    655.22623 
   35100    299.98086   -64.074904    123010.15   -37602.477    3661.6915   -41264.169    657.56139 
   35150    299.30939    125.19765       122952   -37614.621    3653.4952   -41268.116    658.73985 
   35200    296.27033    39.391955    123057.96   -37561.552    3616.3992   -41177.951    659.97821 
   35250    297.88201    -112.7782    122883.53   -37575.755     3636.072   -41211.827    661.09788 
   35300    301.30631   -24.352624     122822.5   -37598.479    3677.8705    -41276.35    661.52465 
   35350    296.45258    29.360586    122679.17   -37615.024    3618.6239   -41233.647    661.85726 
   35400    294.25848   -95.035609    122842.56    -37634.94    3591.8417   -41226.782    662.94679 
   35450    299.01314    25.209598    122887.09   -37623.161    3649.8791    -41273.04    664.24798 
   35500    297.68326   -128.15642     122824.8   -37638.964    3633.6461   -41272.611    665.61403 
   35550    295.22399   -5.9820303    122635.45   -37596.097    3603.6272   -41199.724    666.33389 
   35600    296.85432   -30.475376    122529.26   -37610.596    3623.5276   -41234.124    666.87985 
   35650    295.67875  -0.32807801    122612.97    -37612.53    3609.1781   -41221.708    667.76092 
   35700    300.41855    89.533837    122577.98   -37575.604    3667.0342   -41242.638    668.61867 
   35750    310.93299   -160.37435    122549.25   -37516.768    3795.3778   -41312.146    669.56542 
   35800    307.96007    342.43778    122933.81   -37439.026    3759.0891   -41198.115     671.8192 
   35850    303.24019    183.44253    123172.39   -37464.233    3701.4762    -41165.71    673.94243 
   35900    303.65017   -27.867998    123088.35   -37527.615    3706.4806   -41234.096    675.39404 
   35950     298.6681   -183.20196    122866.48   -37598.038    3645.6675   -41243.705    676.04499 
   36000     299.1761   -32.656583     122802.1   -37613.643    3651.8683   -41265.511    676.86181 
   36050    298.56181   -118.04444    122927.75   -37610.448      3644.37   -41254.818    678.49307 
   36100    296.08135   -258.38419    122961.91   -37639.095    3614.0925   -41253.187    679.53976 
   36150    291.67852    48.537127    122918.11   -37650.991    3560.3497   -41211.341    681.40563 
   36200    299.36016    -95.22084    122899.76   -37630.822     3654.115   -41284.937    683.22877 
   36250    299.96706     -125.209    122911.41   -37717.155    3661.5231   -41378.679    684.42822 
   36300    297.61252    112.55237    122923.13   -37643.078    3632.7826   -41275.861    685.72689 
   36350    296.92764   -25.386325    122732.34   -37684.707    3624.4226    -41309.13     686.3986 
   36400    293.51931   -36.399772    122624.42   -37669.915    3582.8192   -41252.734    688.12565 
   36450    290.73283   -152.11514    122633.57   -37692.738    3548.8063   -41241.544    688.34106 
   36500     299.1685    15.416038    122441.45   -37663.584    3651.7755   -41315.359    688.57077 
   36550    298.18709   -99.600773    122408.45   -37645.972     3639.796   -41285.767    689.68875 
   36600    294.96812   -150.00724    122369.31   -37625.641    3600.5039   -41226.145    690.63615 
   36650    299.57769    59.417918    122333.86   -37643.155    3656.7703   -41299.926      691.465 
   36700    298.59298    46.429678    122465.14   -37677.457    3644.7505   -41322.207    692.47782 
   36750    294.96106     228.8411    122489.18   -37707.698    3600.4178   -41308.116     693.6337 
   36800    298.88817   -44.190207    122479.89   -37738.056    3648.3536    -41386.41    694.86925 
   36850    296.60947    246.95173    122498.01   -37730.037     3620.539   -41350.576     695.3891 
   36900    297.29275     97.97988    122661.27   -37706.967    3628.8794   -41335.846    697.43087 
   36950    294.83211    -183.4309    122693.04   -37723.764    3598.8438   -41322.608    698.37809 
   37000    300.30346   -132.30579    122541.35   -37709.341    3665.6293    -41374.97    698.67607 
   37050    295.84592   -176.90751    122396.05   -37755.619    3611.2188   -41366.837    698.90961 
   37100    293.66849    5.2444087    122440.95    -37732.83    3584.6401    -41317.47    699.66105 
   37150    295.95803    181.54187    122439.73   -37730.929    3612.5872   -41343.516    701.08363 
   37200    293.83328    130.24669    122533.21    -37753.57    3586.6516   -41340.222    702.45288 
   37250    295.75688    120.75389    122421.65   -37761.955    3610.1318   -41372.087    702.87077 
   37300     291.9072   -20.064975    122522.52   -37749.778    3563.1411   -41312.919     704.6455 
   37350    295.61006   -112.88246    122568.23   -37716.313    3608.3397   -41324.653    704.84048 
   37400    296.44415    42.608626    122561.26   -37777.678     3618.521   -41396.199    706.24702 
   37450     298.5926   -83.909392    122657.33   -37742.973    3644.7459   -41387.719    708.24748 
[...]
  990800    296.93016    54.178982    122988.11   -37629.913    3624.4534   -41254.367    19111.085 
  990850    294.00979   -94.145964    123074.96   -37647.987    3588.8061   -41236.793    19121.093 
  990900    292.54818   -250.13773    123137.51   -37659.092    3570.9651   -41230.058    19129.157 
  990950    291.91441   -242.34536    123148.93   -37682.072    3563.2291   -41245.301    19132.073 
  991000    295.38004    -170.7596    123120.15   -37638.116     3605.532   -41243.648    19127.144 
  991050    296.92244   -198.29296    123079.24   -37633.033    3624.3592   -41257.392    19123.469 
  991100    293.78424   -187.73306    123006.96   -37627.598     3586.053   -41213.651    19114.386 
  991150    297.27313   -85.791882    122908.45    -37628.42    3628.6398    -41257.06    19103.948 
  991200     295.3188   -255.51048    122774.96   -37628.915    3604.7845   -41233.699    19091.409 
  991250    299.78247   -401.71072    122595.26   -37636.021    3659.2699   -41295.291    19075.106 
  991300    302.66495    82.139986    122389.89   -37622.299    3694.4547   -41316.754    19051.754 
  991350     303.1198     196.0308    122200.05   -37616.954    3700.0067   -41316.961    19035.134 
  991400    304.13637    401.88014    122050.64   -37628.056    3712.4154   -41340.471    19020.513 
  991450    299.23386     195.8673    121946.59   -37604.422    3652.5733   -41256.995    19008.771 
  991500     301.2117    659.73903    121890.07   -37622.006    3676.7156   -41298.722    19001.133 
  991550    300.69843    414.27099    121923.18   -37601.432    3670.4504   -41271.882     19004.29 
  991600    299.96712    436.70305    122035.73   -37617.911    3661.5238   -41279.435    19019.998 
  991650    299.07341     400.0706    122214.37   -37626.391    3650.6148   -41277.006    19043.737 
  991700    295.92554    262.36902    122454.88   -37648.159    3612.1905   -41260.349    19070.753 
  991750    304.11903    288.34708    122732.74   -37646.854    3712.2038   -41359.058    19100.765 
  991800    302.75696   -266.03674    123034.28   -37641.785    3695.5777   -41337.363    19126.123 
  991850    297.48848   -373.83589    123292.56   -37658.549    3631.2685   -41289.817    19155.652 
  991900    295.99014    -431.7892    123492.48   -37655.995    3612.9791   -41268.974    19174.506 
  991950    293.46174   -613.64179    123627.12   -37661.966    3582.1164   -41244.082     19189.85 
  992000    296.26322   -619.37262    123679.65   -37687.312    3616.3124   -41303.625    19201.331 
  992050    297.72965   -383.04453    123662.67   -37667.909    3634.2123   -41302.121    19203.437 
  992100    297.84392   -649.04157    123584.53   -37679.199    3635.6071   -41314.806     19193.62 
  992150    296.70056    128.23828    123444.82   -37670.062    3621.6508   -41291.713    19178.711 
  992200    297.56153    155.06079     123308.4   -37671.813    3632.1602   -41303.973    19166.723 
  992250    294.81739    40.697896    123192.72    -37677.48    3598.6641   -41276.145     19158.15 
  992300    298.51849    4.6051016    123058.85   -37676.756    3643.8412   -41320.597    19143.365 
  992350    296.22307   -35.655931    122918.28   -37663.449    3615.8224   -41279.271    19129.476 
  992400    298.24996     225.9311     122798.4   -37688.443    3640.5634   -41329.007    19115.578 
  992450    296.22399   -18.963711    122715.03   -37694.907    3615.8336   -41310.741    19106.167 
  992500    295.67259   -379.27086    122648.87   -37715.722     3609.103   -41324.825    19099.042 
  992550    294.02991    365.18199     122566.5   -37712.134    3589.0518   -41301.185    19089.331 
  992600     300.0183     354.1544    122512.12    -37739.07    3662.1485   -41401.219    19080.202 
  992650     297.7359    133.65605    122500.99   -37756.243    3634.2886   -41390.532    19081.671 
  992700    296.06294    69.910242    122523.17   -37763.672    3613.8677    -41377.54    19085.658 
  992750     298.0087    66.647022    122570.22   -37735.295    3637.6185   -41372.914    19089.701 
  992800    289.62579    212.34413    122648.78   -37733.622    3535.2932   -41268.915    19099.668 
  992850    296.84877   -534.17696    122763.46   -37732.864    3623.4599   -41356.324    19114.334 
  992900    291.15454   -173.21092    122846.89   -37736.336    3553.9538    -41290.29    19125.077 
  992950    295.88603    86.123003     122896.6    -37707.34    3611.7083   -41319.048    19133.307 
  993000    296.80453   -358.31892    122941.31    -37694.94    3622.9199    -41317.86    19138.453 
  993050    294.59994   -198.27507    122966.08   -37714.411    3596.0097   -41310.421    19137.932 
  993100    292.87521   -201.85587    122955.86   -37696.085     3574.957   -41271.042    19138.894 
  993150    290.74399   -86.415806    122915.67    -37675.35    3548.9424   -41224.292    19134.203 
  993200     295.4694   -307.96381    122836.02    -37682.31    3606.6228   -41288.933    19126.774 
  993250    294.12141    44.305048    122717.62   -37670.448    3590.1687   -41260.617    19114.425 
  993300    296.88535    389.60711    122599.61   -37650.959    3623.9064   -41274.866     19101.95 
  993350    296.98884   -65.698448    122494.89   -37656.314    3625.1697   -41281.484     19090.71 
  993400    300.87555    211.88266     122392.6   -37656.023    3672.6125   -41328.635    19082.485 
  993450    301.00343      202.648    122334.97   -37648.848    3674.1735   -41323.022    19078.311 
  993500    300.17857   -48.037181     122341.1   -37639.047    3664.1048   -41303.152    19079.496 
  993550    303.21771   -200.15509    122364.31   -37627.363    3701.2019   -41328.565    19086.939 
  993600    292.80156   -235.34905    122365.34   -37615.249     3574.058   -41189.307     19088.42 
  993650    307.07892    117.04671     122345.1   -37592.858    3748.3334   -41341.192    19084.689 
  993700    295.03886    321.55466    122353.11   -37616.144    3601.3674   -41217.512    19087.056 
  993750    297.52642    370.96913    122405.44    -37625.34    3631.7317   -41257.072    19092.496 
  993800    299.26221     218.9756    122512.16   -37630.173    3652.9194   -41283.093    19105.084 
  993850    298.03041   -57.745655    122652.39   -37623.706    3637.8835    -41261.59    19121.883 
  993900    296.34433   -145.80635    122787.12   -37625.948    3617.3025   -41243.251    19136.434 
  993950     298.9154   -96.109791    122915.02   -37617.169    3648.6861   -41265.855     19147.62 
  994000    295.74806   -47.031028    123040.35   -37637.652    3610.0242   -41247.676    19161.031 
  994050    298.29999   -367.74603    123165.16   -37642.868    3641.1741   -41284.043    19177.921 
  994100    298.16531   -476.07528    123254.75    -37662.52    3639.5302    -41302.05    19183.496 
  994150    293.51459   -418.81525    123259.74   -37677.453    3582.7616   -41260.215    19186.488 
  994200    297.38081    -416.8724    123188.33   -37690.727    3629.9542   -41320.681    19180.081 
  994250    295.78009    -130.5891    123044.64   -37702.679    3610.4152   -41313.094    19162.832 
  994300    294.23718    -53.82259    122860.75   -37697.807    3591.5818   -41289.389     19144.54 
  994350    300.41792   -75.651976    122667.75   -37722.913    3667.0265    -41389.94    19126.123 
  994400    298.50532   -505.61809    122469.28   -37712.189    3643.6805    -41355.87    19109.424 
  994450    291.36819    414.97981    122238.97   -37726.794    3556.5617   -41283.355    19085.445 
  994500    297.24679    392.58393    122032.63    -37712.38    3628.3183   -41340.698    19060.589 
  994550     304.1594    296.93773    121871.74    -37722.77    3712.6965   -41435.467      19042.9 
  994600    297.70576    710.46592    121758.96   -37704.262    3633.9207   -41338.183    19033.523 
  994650    301.43143    688.90512    121741.65   -37686.527    3679.3977   -41365.925    19033.079 
  994700    294.96676    578.94423    121819.03   -37722.613    3600.4873     -41323.1    19038.787 
  994750     294.6056    259.38705    121989.95   -37748.797    3596.0788   -41344.876    19060.274 
  994800    296.86913    347.20948    122213.82    -37745.32    3623.7084   -41369.028    19084.798 
  994850    298.13735   -125.39177    122464.88   -37715.079    3639.1889   -41354.268    19109.642 
  994900     292.8019   -16.870955    122714.76   -37729.482    3574.0622   -41303.544    19133.919 
  994950    291.71137   -312.65248    122961.69   -37722.263    3560.7506   -41283.014    19159.865 
  995000    298.30456   -679.67487    123155.82   -37707.093    3641.2299   -41348.323    19180.383 
  995050    300.89692   -411.23095    123260.21   -37666.032    3672.8733   -41338.905    19189.507 
  995100    292.44513   -344.95406    123308.17   -37669.948    3569.7072   -41239.655    19195.159 
  995150     294.9456   -362.25063    123295.78   -37685.797    3600.2291   -41286.026    19199.267 
  995200    293.33848    -423.5682    123216.75   -37713.565    3580.6119   -41294.177    19192.113 
  995250    296.22806   -198.47036    123068.78   -37712.758    3615.8833   -41328.641     19175.03 
  995300     295.3435   -56.802095    122866.99   -37721.721     3605.086   -41326.807    19157.565 
  995350    290.76922    204.01605    122635.66   -37734.641    3549.2504   -41283.891    19138.095 
  995400    294.54319    161.94492    122391.14   -37744.666    3595.3171   -41339.983    19115.489 
  995450    293.80962    230.40975    122170.77   -37747.252    3586.3628   -41333.614    19091.692 
  995500    299.14506    187.94288    121992.76    -37741.71    3651.4894     -41393.2    19072.646 
  995550    294.09937    480.37443    121871.14   -37758.572    3589.8996   -41348.472    19064.438 
  995600    294.73117    577.32977    121832.49   -37751.237    3597.6116   -41348.849    19066.091 
  995650    297.55149    371.14146    121871.47   -37724.306    3632.0376   -41356.344    19070.238 
  995700    299.80806    314.98852    121968.98   -37724.249    3659.5822   -41383.831     19078.58 
  995750    293.29545    353.13698    122130.28   -37729.937    3580.0866   -41310.024    19096.845 
  995800    296.08021    307.14108    122354.77   -37706.099    3614.0786   -41320.178    19123.097 
  995850    294.11854   -230.89876    122612.35   -37710.177    3590.1336    -41300.31    19150.933 
  995900    291.07716   -171.95851    122856.46   -37695.319    3553.0092   -41248.328    19173.488 
  995950    295.63016    27.680067    123082.94   -37708.979     3608.585   -41317.564    19197.199 
  996000    291.92003   -515.27881    123307.64   -37709.968    3563.2976   -41273.266    19221.221 
  996050    295.44347   -361.45383    123477.77    -37679.47    3606.3062   -41285.776    19242.697 
  996100    298.45735   -697.27279    123585.34   -37687.204    3643.0949   -41330.299     19252.26 
  996150    300.64357   -541.49297    123610.43   -37672.814    3669.7809   -41342.595    19255.468 
  996200    295.94367    -401.5798     123561.5   -37663.345    3612.4119   -41275.757     19250.65 
  996250    298.00662   -49.039847     123460.4   -37666.226    3637.5931   -41303.819    19240.191 
  996300    296.16004   -223.58201    123335.95   -37652.253     3615.053   -41267.305     19225.54 
  996350     300.1558    135.49149    123198.22   -37623.524    3663.8269   -41287.351    19211.462 
  996400    299.27252   -285.90775    123057.75   -37608.237    3653.0452   -41261.283    19197.739 
  996450    297.65148    136.09425    122900.68   -37599.712    3633.2581    -41232.97    19182.871 
  996500    299.45787    183.57122     122750.8   -37603.794    3655.3077   -41259.101     19168.89 
  996550    299.70525     117.4974    122632.16    -37575.39    3658.3273   -41233.717    19157.999 
  996600    300.46688    68.613575    122538.92   -37613.201    3667.6241   -41280.825    19147.743 
  996650    304.51965   -53.054351    122461.71   -37612.748    3717.0939   -41329.842    19139.824 
  996700    300.60657   -184.54302    122394.88   -37614.882    3669.3292   -41284.212    19136.995 
  996750    301.35402    42.939792    122337.95   -37608.648    3678.4528   -41287.101    19137.196 
  996800    296.17974    289.88758    122307.19   -37604.821    3615.2934   -41220.114    19135.275 
  996850    298.47587   -8.5813391    122309.95   -37605.386     3643.321   -41248.707    19136.539 
  996900    297.85248    188.72621    122329.62   -37602.746    3635.7116   -41238.458    19136.849 
  996950     298.2801    40.152322     122375.1    -37613.05    3640.9314   -41253.981    19140.226 
  997000    300.72059   -288.04694    122429.69   -37606.175    3670.7209   -41276.896    19145.213 
  997050    296.12968     160.4174    122481.27   -37589.885    3614.6823   -41204.568    19150.601 
  997100    301.69488   -69.412613    122541.04   -37619.713    3682.6136   -41302.327    19154.776 
  997150    297.37269   -113.06477    122585.99   -37591.177    3629.8551   -41221.032      19161.4 
  997200    293.39096     -150.351    122616.05   -37613.778    3581.2525   -41195.031    19168.243 
  997250    297.43373   -82.446201    122637.42   -37597.448    3630.6002   -41228.048    19172.348 
  997300    291.09125   -45.251692    122653.54   -37623.568    3553.1812   -41176.749      19172.1 
  997350    300.03333   -30.300893    122666.86   -37628.395     3662.332   -41290.727    19175.032 
  997400    299.27287   -221.50784    122680.45   -37626.884    3653.0495   -41279.933    19178.164 
  997450    294.06889    39.012917    122684.34   -37644.111    3589.5275   -41233.638    19185.172 
  997500    299.01355   -296.22453    122699.08   -37644.602    3649.8841   -41294.486     19188.97 
  997550    294.38459   -385.60668    122698.85   -37640.112    3593.3811   -41233.493    19189.647 
  997600     298.3979   -23.239591    122656.95   -37671.051    3642.3692   -41313.421     19188.16 
  997650    294.94515   -54.334779    122598.45   -37703.837    3600.2236   -41304.061     19183.82 
  997700    299.40763    177.21724    122531.81   -37692.247    3654.6944   -41346.942    19178.841 
  997750    295.30236    462.07581    122478.98    -37695.68    3604.5837   -41300.264    19173.415 
  997800    293.57974    165.21265    122491.89   -37695.928    3583.5567   -41279.484    19174.858 
  997850    292.82699     138.2173    122560.31   -37698.301    3574.3684    -41272.67    19180.562 
  997900     291.8233    355.37665    122690.81   -37716.282     3562.117   -41278.399    19192.257 
  997950    294.38547    215.26635    122878.39   -37696.047    3593.3918   -41289.439    19212.741 
  998000    294.72885   -306.14903    123084.85   -37693.725    3597.5833   -41291.308    19236.052 
  998050    295.96912    -421.2105    123271.23   -37694.197    3612.7225    -41306.92    19256.186 
  998100    294.21543   -656.55626    123386.67   -37681.456    3591.3162   -41272.773    19267.727 
  998150    299.75001   -313.00965    123410.55   -37653.971    3658.8737   -41312.845    19268.822 
  998200     300.7523   -390.81787    123364.54   -37631.273    3671.1081   -41302.382    19261.124 
  998250    296.33072   -233.57022    123264.92   -37639.495    3617.1364   -41256.632     19255.08 
  998300    296.40896   -5.6571386    123122.96   -37639.239    3618.0914   -41257.331    19241.935 
  998350    292.42237   -227.85407    122967.36   -37643.124    3569.4294   -41212.553    19228.797 
  998400    295.57658   -125.51645    122761.55   -37651.143     3607.931   -41259.074    19206.556 
  998450    297.20754    522.50806     122529.7   -37671.387    3627.8392   -41299.226    19182.303 
  998500    300.21331    203.06273    122337.34     -37703.2    3664.5289   -41367.729    19159.827 
  998550     295.8728    256.39212     122193.3   -37697.295    3611.5468   -41308.842    19147.766 
  998600    298.90019    189.16291    122090.59   -37671.899    3648.5004     -41320.4     19140.42 
  998650    298.48775    330.06727     122023.8   -37676.338    3643.4659   -41319.804    19135.301 
  998700    301.94271   -146.74706    122005.56   -37667.837    3685.6387   -41353.476    19134.612 
  998750    301.68356    388.83692    122003.57   -37636.956    3682.4754   -41319.432    19138.062 
  998800      294.926    466.98532    122059.53   -37648.679    3599.9898   -41248.669    19144.924 
  998850    299.15671    248.80422    122187.41   -37674.537    3651.6316   -41326.169    19161.926 
  998900    296.01241   -95.232791    122356.37   -37673.209     3613.251    -41286.46    19180.284 
  998950    302.38528   -158.62156    122522.54   -37651.186    3691.0409   -41342.227    19197.655 
  999000    299.15244   -159.93743    122662.09   -37634.434    3651.5795   -41286.014    19214.203 
  999050    296.99613   -216.34276    122782.59   -37641.745    3625.2587   -41267.003    19225.808 
  999100    296.16341    3.6894776    122902.23   -37648.691    3615.0942   -41263.785    19237.057 
  999150     293.0843    -263.1721    123011.08   -37658.594    3577.5092   -41236.103     19249.07 
  999200    293.64087   -216.89678    123073.58   -37648.398    3584.3029   -41232.701    19256.776 
  999250    299.99487   -300.28568    123106.55   -37655.189    3661.8626   -41317.052    19262.418 
  999300    293.06305   -229.29122    123101.76   -37663.864    3577.2499   -41241.114    19261.484 
  999350    293.38381   -48.383749    123055.73   -37674.252    3581.1651   -41255.417    19259.782 
  999400    296.20892   -249.27308    122979.65   -37665.013    3615.6497   -41280.663    19250.924 
  999450    296.33021    82.990486    122867.45   -37674.032    3617.1302   -41291.162    19240.784 
  999500    297.86116    45.370823    122765.04    -37709.45    3635.8176   -41345.268    19234.253 
  999550    297.21127    166.52309     122671.4    -37720.32    3627.8848   -41348.205    19223.916 
  999600    298.92253    109.94327    122586.19   -37744.669     3648.773   -41393.442    19214.345 
  999650    294.87896   -165.12876    122506.65   -37726.505    3599.4156    -41325.92    19202.773 
  999700    294.17143   -60.208443    122418.09   -37721.394    3590.7792   -41312.174      19190.1 
  999750    294.41081    396.87894    122329.86   -37722.072    3593.7012   -41315.773    19179.643 
  999800    300.73672    6.1387568    122285.21   -37714.781    3670.9179   -41385.699    19175.932 
  999850    293.97308    391.90009     122290.4   -37729.151    3588.3581   -41317.509    19177.222 
  999900    294.31865    260.16259     122355.7   -37714.372    3592.5763   -41306.949    19183.497 
  999950    294.43512   -44.415615    122472.13   -37746.163    3593.9979   -41340.161    19195.912 
 1000000    290.62505   -210.83051    122610.92   -37756.356    3547.4906   -41303.846    19210.482 
Loop time of 2157.4 on 12 procs for 1000000 steps with 4096 atoms

Performance: 200.241 ns/day, 0.120 hours/ns, 463.520 timesteps/s
97.6% CPU use with 12 MPI tasks x no OpenMP threads

MPI task timing breakdown:
Section |  min time  |  avg time  |  max time  |%varavg| %total
---------------------------------------------------------------
Pair    | 1608.4     | 1630.3     | 1683.5     |  53.0 | 75.57
Neigh   | 50.11      | 50.79      | 52.458     |   8.1 |  2.35
Comm    | 308.2      | 361.95     | 383.28     | 112.3 | 16.78
Output  | 1.6902     | 1.8052     | 2.9357     |  25.4 |  0.08
Modify  | 98.349     | 99.978     | 101.33     |   9.7 |  4.63
Other   |            | 12.56      |            |       |  0.58

Nlocal:    341.333 ave 350 max 332 min
Histogram: 2 0 1 0 0 4 3 0 1 1
Nghost:    1026.42 ave 1038 max 1017 min
Histogram: 3 1 3 0 0 0 0 2 1 2
Neighs:    0 ave 0 max 0 min
Histogram: 12 0 0 0 0 0 0 0 0 0
FullNghs:  11438.7 ave 11882 max 11093 min
Histogram: 2 0 1 1 2 4 1 0 0 1

Total # of neighbors = 137264
Ave neighs/atom = 33.5117
Neighbor list builds = 73592
Dangerous builds = 0
#run					100000
write_restart   prod.${NAME}-p1t${TEMP}.rst
write_restart   prod.liquid_msd_long-p1t${TEMP}.rst
write_restart   prod.liquid_msd_long-p1t298.rst

Total wall time: 0:44:41
