
# Create simulation box and atoms
lattice		    sc 1
Lattice spacing in x,y,z = 1 1 1
region 		    all block 0 50 0 50 0 50 units box
create_box 	    1 all
Created orthogonal box = (0 0 0) to (50 50 50)
  2 by 2 by 3 MPI processor grid

create_atoms	1 random 4096 83782 all
Created 4096 atoms
  Time spent = 0.000538111 secs

mass		    1 18.015

# Define potential

pair_style 	    sw
pair_coeff	    * * mW_real.sw mW
Reading potential file mW_real.sw with DATE: 2019-02-27

# Run minimization and output files

minimize 	    1.0e-8 1.0e-8 10000 1000
WARNING: Using 'neigh_modify every 1 delay 0 check yes' setting during minimization (../min.cpp:168)
Neighbor list info ...
  update every 1 steps, delay 0 steps, check yes
  max neighbors/atom: 2000, page size: 100000
  master list distance cutoff = 6.3065
  ghost atom cutoff = 6.3065
  binsize = 3.15325, bins = 16 16 16
  1 neighbor lists, perpetual/occasional/extra = 1 0 0
  (1) pair sw, perpetual
      attributes: full, newton on
      pair build: full/bin/atomonly
      stencil: full/bin/3d
      bin: standard
Per MPI rank memory allocation (min/avg/max) = 4.22 | 4.223 | 4.228 Mbytes
Step Temp E_pair E_mol TotEng Press 
       0            0    3558105.7            0    3558105.7    2737058.2 
     705            0    -46173.33            0    -46173.33   -1079.4206 
Loop time of 2.0049 on 12 procs for 705 steps with 4096 atoms

98.3% CPU use with 12 MPI tasks x no OpenMP threads

Minimization stats:
  Stopping criterion = max force evaluations
  Energy initial, next-to-last, final = 
         3558105.72845     -46173.1710879     -46173.3297827
  Force two-norm initial, final = 3.20802e+07 3.00429
  Force max component initial, final = 1.17575e+07 0.444838
  Final line search alpha, max atom move = 0.0668328 0.0297298
  Iterations, force evaluations = 705 1001

MPI task timing breakdown:
Section |  min time  |  avg time  |  max time  |%varavg| %total
---------------------------------------------------------------
Pair    | 1.2224     | 1.5686     | 1.7781     |  13.7 | 78.24
Neigh   | 0.022757   | 0.02629    | 0.028487   |   1.0 |  1.31
Comm    | 0.15582    | 0.36619    | 0.71393    |  28.7 | 18.26
Output  | 0          | 0          | 0          |   0.0 |  0.00
Modify  | 0          | 0          | 0          |   0.0 |  0.00
Other   |            | 0.04385    |            |       |  2.19

Nlocal:    341.333 ave 354 max 306 min
Histogram: 1 0 0 1 0 0 1 3 2 4
Nghost:    1016.42 ave 1057 max 995 min
Histogram: 3 2 1 2 1 0 1 1 0 1
Neighs:    0 ave 0 max 0 min
Histogram: 12 0 0 0 0 0 0 0 0 0
FullNghs:  11065.2 ave 11809 max 9333 min
Histogram: 1 0 1 0 0 1 2 2 0 5

Total # of neighbors = 132782
Ave neighs/atom = 32.4175
Neighbor list builds = 38
Dangerous builds = 0
write_restart	min.${NAME}.rst
write_restart	min.liquid_long01.rst
write_data      min.${NAME}.data
write_data      min.liquid_long01.data

# Equilibration of molecular water

# Add velocity/set timestep

velocity	    all create ${TEMP} 120598 rot yes dist gaussian
velocity	    all create 298 120598 rot yes dist gaussian
timestep	    5.0

# Define output
compute			1 all msd

thermo	    	50
thermo_style	custom step temp press vol etotal ke pe c_1[4]

# Neighbor lists

neigh_modify    delay 0 every 1 check yes

# Set fixes

fix             1 all momentum 10 linear 1 1 1 rescale
fix             2 all nve
fix             3 all temp/csvr ${TEMP} ${TEMP} 500.0 928347
fix             3 all temp/csvr 298 ${TEMP} 500.0 928347
fix             3 all temp/csvr 298 298 500.0 928347
fix             4 all press/berendsen iso ${PRES} ${PRES} 1000.0 modulus 20000
fix             4 all press/berendsen iso 1 ${PRES} 1000.0 modulus 20000
fix             4 all press/berendsen iso 1 1 1000.0 modulus 20000

# Run 1 ns equilibration

#dump		    1 all xtc 2000 eq.${NAME}-p1t${TEMP}.xtc
dump		    1 all atom 1000 eq.${NAME}-p1t${TEMP}.dump
dump		    1 all atom 1000 eq.liquid_long01-p1t${TEMP}.dump
dump		    1 all atom 1000 eq.liquid_long01-p1t298.dump

reset_timestep  0

run	            200000
Per MPI rank memory allocation (min/avg/max) = 4.484 | 4.487 | 4.491 Mbytes
Step Temp Press Volume TotEng KinEng PotEng c_1[4] 
       0          298    250.81112       125000   -42535.817    3637.5123    -46173.33            0 
      50    174.98078   -65.174201    125590.56   -41657.621    2135.8884   -43793.509   0.28918214 
     100    197.56359    121.95524    125742.78   -41016.306    2411.5435   -43427.849   0.49508864 
     150    218.52358    35.804989    125749.34   -40493.758      2667.39   -43161.148    0.7174785 
     200    236.00675    -138.4214     125849.9   -40078.602    2880.7968   -42959.399   0.99296942 
     250    242.66455     53.69666    125688.67    -39762.45    2962.0647   -42724.514    1.2730185 
     300    254.41943   -89.147741    125677.41   -39453.428    3105.5497   -42558.977    1.5952529 
     350    259.35878   -204.56447     125190.7   -39250.104    3165.8415   -42415.945    1.9727037 
     400    265.02677    -6.947162    124812.99   -39052.861    3235.0273   -42287.889     2.400351 
     450     270.6299   -201.76591    124705.68   -38845.625    3303.4215   -42149.047    2.8206017 
     500    268.54876   -281.93352    124497.49   -38695.004    3278.0182   -41973.022    3.2562668 
     550    280.55741   -65.021889    124291.26   -38470.331    3424.6007   -41894.931    3.7466091 
     600    281.84776    -167.7695    124237.14   -38307.214    3440.3514   -41747.565    4.2916287 
     650    283.98989   -231.98777    124029.28   -38240.939    3466.4991   -41707.438    4.8804496 
     700    285.93207   -77.585376    123769.26   -38171.068    3490.2061   -41661.274     5.636046 
     750     287.5514    16.753107    123673.85   -38114.286    3509.9724   -41624.258    6.4464256 
     800    289.52073   -143.14349     123764.9   -38010.011    3534.0108   -41544.021    7.3068161 
     850    285.70928   -29.391882    123633.46   -37973.611    3487.4867   -41461.098    8.0327652 
     900    291.97839   -291.77755    123525.18   -37901.403      3564.01   -41465.413    8.7012433 
     950    289.06496   -127.38827    123265.31   -37924.852    3528.4475   -41453.299    9.3712506 
    1000    285.80529   -191.91981    123087.97   -37906.323    3488.6585   -41394.982    10.114113 
    1050    295.86594   -193.28915    122868.03   -37881.588     3611.463   -41493.051    10.893401 
    1100    294.36515   -27.587933    122900.93   -37789.086    3593.1438    -41382.23    11.760071 
    1150    290.29737    152.69855    123063.04   -37809.999    3543.4908    -41353.49    12.691512 
    1200    296.97057    -150.5244    123128.43   -37724.713    3624.9466   -41349.659    13.574875 
    1250    292.30143   -25.730435    122849.17   -37714.697    3567.9531    -41282.65    14.429835 
    1300    300.56951   -46.609269    122607.86   -37641.641    3668.8769   -41310.518    15.252199 
    1350    296.72326   -33.282548    122557.95   -37731.563    3621.9279   -41353.491    16.087948 
    1400    291.27354   -112.60997    122517.95   -37704.475    3555.4063   -41259.882    16.957814 
    1450    292.25293    45.356008    122435.94   -37770.328    3567.3612    -41337.69    18.008625 
    1500    296.52626    44.443833    122587.73   -37734.857    3619.5233   -41354.381    18.916975 
    1550    300.02281    105.33888    122723.05   -37682.927    3662.2036   -41345.131    19.918536 
    1600     297.4824    38.001056    122723.36   -37675.521    3631.1943   -41306.715     20.82932 
    1650    298.82076    95.095556    122703.84    -37645.19    3647.5309   -41292.721    21.674131 
    1700    298.43571    53.521012    122819.74   -37683.767    3642.8308   -41326.597    22.579657 
    1750    300.54601    140.80457    122812.89   -37638.382      3668.59   -41306.972    23.511348 
    1800    298.73474   -13.163333    122914.37   -37643.433    3646.4809   -41289.914    24.401798 
    1850    298.73483   -35.219245    122893.52   -37611.155     3646.482   -41257.637    25.358415 
    1900     297.4975    2.0688847    122954.34   -37560.124    3631.3786   -41191.503    26.252211 
    1950    301.91801   -97.487547    122903.27   -37542.144    3685.3371   -41227.481    27.158045 
    2000    303.68989    70.784221    122923.95   -37525.418    3706.9655   -41232.384    28.113832 
    2050    295.59019   -1.2031096     122774.8   -37638.815    3608.0972   -41246.912    29.004724 
    2100    297.63686    62.169612    122737.85   -37651.881    3633.0796   -41284.961    29.920333 
    2150    299.97811   -88.697772     122647.3   -37616.103     3661.658   -41277.761    30.780403 
    2200    297.69507   0.62362722    122858.33   -37584.919    3633.7902   -41218.709    32.029799 
    2250    302.44999    37.960494    122818.88   -37549.801    3691.8307   -41241.632    33.102156 
    2300    298.45568    200.51004     122863.9   -37537.067    3643.0745   -41180.141    34.057393 
    2350    295.14434   -95.594015    122798.89    -37551.58     3602.655   -41154.235    35.081602 
    2400    301.62248   -56.105023    122769.57   -37567.148    3681.7298   -41248.878    36.071288 
    2450    299.37877    71.519963    122693.77   -37557.698    3654.3422   -41212.041    36.951278 
    2500    301.09321   -123.36646    122612.77   -37603.657    3675.2693   -41278.927    38.186057 
    2550    303.25618    78.201384    122632.34   -37576.172    3701.6715   -41277.843    39.090259 
    2600    298.65085    84.197236    122677.79   -37643.906    3645.4569   -41289.363    40.140982 
    2650    300.44447    15.601812    122875.26   -37581.311    3667.3505   -41248.662    41.293467 
    2700    294.15101   -149.95713    122817.03   -37626.416      3590.53   -41216.946    42.186805 
    2750    299.36904    186.88566    122777.65   -37580.975    3654.2233   -41235.198    43.048936 
    2800    302.66024   -62.557044    122886.71   -37529.884    3694.3971   -41224.281    44.064849 
    2850    301.02345   -194.37005    122752.21   -37470.516    3674.4178   -41144.933     45.07491 
    2900     298.9976    41.570114    122738.14   -37513.819    3649.6895   -41163.509    45.940209 
    2950    298.24365   -77.681079    122666.69   -37533.504    3640.4864    -41173.99    46.922998 
    3000    300.19854    28.782419    122849.19   -37559.383    3664.3486   -41223.732    48.073351 
    3050    298.94162   -108.25719    122937.05   -37551.011    3649.0061   -41200.018    48.949166 
    3100    303.21986    132.95396    122983.83   -37532.401    3701.2281   -41233.629    50.056111 
    3150     296.9202    74.384504    122923.56   -37511.294    3624.3319   -41135.626    50.965957 
    3200    295.31392   -32.669941    122888.85   -37596.216    3604.7249   -41200.941    51.826657 
    3250    288.50188   -170.25232    122955.69    -37682.88    3521.5743   -41204.455    52.701667 
    3300    293.71806   -9.9494996    122831.66   -37664.306    3585.2452   -41249.551    53.386222 
    3350    304.52178    54.041375    122600.82   -37646.561    3717.1199   -41363.681    54.172691 
    3400    298.59319    2.7471006    122746.97   -37631.104    3644.7531   -41275.857    55.020481 
    3450      303.216   -101.60432     122553.4   -37597.602    3701.1809   -41298.783    55.760322 
    3500    297.99117    122.80359    122604.37   -37627.252    3637.4045   -41264.656    56.634854 
    3550    298.70178    34.274627    122576.12    -37628.75    3646.0785   -41274.829    57.621591 
    3600    299.21545   -45.269041    122514.59   -37647.903    3652.3486   -41300.252    58.370313 
    3650    294.64625   -6.9527655    122491.93   -37650.232    3596.5751   -41246.807     59.01447 
    3700    299.84957    110.85002     122427.5    -37595.34     3660.089   -41255.429     59.80419 
    3750    298.48728    33.661504    122603.08   -37583.382    3643.4602   -41226.843    61.003045 
    3800    300.08515    44.040709     122674.3   -37595.725    3662.9645   -41258.689    61.907694 
    3850    299.48389    150.02982    122809.86   -37566.941    3655.6253   -41222.566    62.880248 
    3900    299.81299    158.44979    123039.73   -37602.378    3659.6424    -41262.02    63.820765 
    3950    295.30837    180.89785    123157.28   -37629.187    3604.6572   -41233.844    64.441307 
    4000    300.33072     65.70694    123222.62   -37644.151     3665.962   -41310.113    65.400613 
    4050    294.55294   -117.49068    122980.38   -37695.813    3595.4361   -41291.249    66.068315 
    4100    298.24582    71.332488    122851.25   -37672.352    3640.5129   -41312.865    66.672374 
    4150    297.17843    -165.1206    122964.67   -37633.621    3627.4839   -41261.105    67.571909 
    4200    297.01889    127.32419    122878.07   -37627.942    3625.5364   -41253.479    68.081306 
    4250    299.17653   -29.323574    122908.39   -37684.025    3651.8736   -41335.899    68.768269 
    4300    291.66351   -140.82845    122644.05   -37769.192    3560.1665   -41329.359    69.427635 
    4350    299.07243    44.447158    122602.85   -37644.726    3650.6029   -41295.329    70.363439 
    4400    295.86575   -90.231661    122577.71   -37645.216    3611.4607   -41256.677    71.256537 
    4450    297.38476    124.75016    122778.36   -37682.272    3630.0024   -41312.275    72.143571 
    4500    298.76254    55.146469    122774.95   -37710.153    3646.8202   -41356.973    72.884604 
    4550    296.10508   -62.320758    122745.06   -37751.004    3614.3821   -41365.386     73.84953 
    4600    298.58782   -57.109185    122727.88   -37746.528    3644.6875   -41391.216    74.917606 
    4650    299.06258   -12.160631    122575.89   -37717.642    3650.4826   -41368.125    75.763838 
    4700    296.61129    219.48046    122840.96   -37643.027    3620.5612   -41263.588    76.583885 
    4750    299.47236    29.582166     122898.1   -37570.804    3655.4846   -41226.289    77.725734 
    4800    299.72179   -68.518462    122854.15   -37534.948    3658.5292   -41193.477    78.502446 
    4850    304.03525   -235.44501    122784.53    -37564.05     3711.181   -41275.231    79.665085 
    4900     302.1529   -96.567557    122730.46   -37515.451    3688.2043   -41203.655    81.026428 
    4950    298.42482    71.249276    122779.31    -37540.04    3642.6979   -41182.738    82.071075 
    5000    296.35203   -104.83287    122831.59   -37637.086    3617.3965   -41254.482    83.016873 
    5050    298.70361    23.553982    122739.32   -37590.458    3646.1009   -41236.559    83.988175 
    5100    299.95244    21.906523    122786.59    -37563.84    3661.3447   -41225.184    84.930615 
    5150    301.54181    70.201214    122767.38   -37524.567    3680.7451   -41205.312    85.824407 
    5200    299.62938     81.84278    122917.47   -37630.578    3657.4012   -41287.979    86.571523 
    5250    296.07551   -239.40927    122649.94   -37722.363    3614.0212   -41336.384    87.490025 
    5300    296.40149   -289.16625    122577.74   -37726.444    3618.0002   -41344.444    88.361965 
    5350    292.88599   -227.49565    122454.24   -37766.815    3575.0885   -41341.904     88.94096 
    5400    298.39173    141.96193    122433.06   -37698.494    3642.2939   -41340.788    89.889478 
    5450    294.44981     161.2376    122482.69   -37677.166    3594.1772   -41271.343    91.149007 
    5500    294.48038    190.45385    122536.02   -37660.808    3594.5504   -41255.359    92.295204 
    5550    292.86894    65.980942    122575.48   -37740.486    3574.8805   -41315.367    93.554953 
    5600    296.18967   -116.43138    122645.93   -37682.093    3615.4146   -41297.508     94.59969 
    5650    292.27098   -42.584699    122616.34   -37662.568    3567.5815    -41230.15    95.482133 
    5700    294.23697    20.571598    122630.52   -37655.408    3591.5792   -41246.987    96.134658 
    5750    297.57396   -134.88511    122517.87   -37649.666    3632.3119   -41281.978    96.864046 
    5800    302.16565    271.16816    122712.17   -37612.458      3688.36   -41300.817    97.737724 
    5850    295.29446    59.060015    122962.99   -37685.247    3604.4873   -41289.734    98.857882 
    5900    297.57408   -15.782552    122980.58   -37690.149    3632.3134   -41322.462    99.829608 
    5950    292.85491    208.14626    122882.33   -37724.853    3574.7092   -41299.562    100.87658 
    6000    298.58929    29.893208    122923.55   -37678.779    3644.7054   -41323.484    101.93593 
    6050    292.24324       192.13    122975.24   -37780.901    3567.2429   -41348.144    102.67939 
    6100    294.51797    14.061067    122982.09   -37770.176    3595.0092   -41365.185    103.52551 
    6150    298.74809   -148.71773    122992.73    -37780.99    3646.6439   -41427.634    104.47536 
    6200     296.8603    169.09724     122961.9   -37770.026    3623.6007   -41393.627    105.23346 
    6250    300.45279   -61.352584    122961.44   -37685.772    3667.4521   -41353.224    105.92214 
    6300    297.27455   -29.837406    122861.86   -37667.595    3628.6572   -41296.253    106.88633 
    6350    295.77354   -84.238821    122865.34   -37701.961    3610.3352   -41312.297    107.80658 
    6400    297.76995    38.541449    123053.79   -37715.877    3634.7043   -41350.581    108.81354 
    6450    300.05589   -157.53465    123004.63   -37758.008    3662.6074   -41420.615    109.28917 
    6500    298.83284   -60.548686    123020.45   -37744.984    3647.6782   -41392.663    110.14323 
    6550    293.10326   -81.037192    122933.59    -37811.39    3577.7407    -41389.13    111.12957 
    6600    300.07169    -219.2687    122838.38   -37759.313    3662.8003   -41422.113    111.97799 
    6650    299.54802   -152.77174    122619.26   -37778.274    3656.4081   -41434.682    112.57083 
    6700    294.01021   -225.76679    122423.25   -37827.029    3588.8112    -41415.84    113.49337 
    6750    296.12808    117.05333    122448.51   -37817.756    3614.6629   -41432.419    114.45439 
    6800    298.17787   -76.963128    122413.73   -37768.252    3639.6834   -41407.936    115.39899 
    6850    298.15995   -14.680437    122624.18   -37717.144    3639.4648   -41356.608    116.62006 
    6900    297.14808     210.4719    122607.79   -37693.893    3627.1134   -41321.007    117.80368 
    6950    300.91197   -137.38772     122659.1   -37755.325     3673.057   -41428.382    118.79534 
    7000    296.78768   -80.306313    122559.68   -37710.721    3622.7143   -41333.435    119.79202 
    7050    293.24024    197.85339    122602.68   -37740.212    3579.4127   -41319.624    120.85241 
    7100    300.36772   -7.3100702    122564.18   -37711.732    3666.4137   -41378.145    121.78113 
    7150    291.83656   -32.563744    122449.73   -37748.384    3562.2787   -41310.663    122.47366 
    7200      293.274   -77.825141    122310.14   -37816.738    3579.8247   -41396.563    123.63825 
    7250    292.07669   -1.6933673    122306.83    -37857.25      3565.21    -41422.46    124.62997 
    7300    291.18864   -2.8310056    122387.96   -37825.387    3554.3701   -41379.757    125.83347 
    7350    293.32498   -71.955242     122394.8    -37746.42    3580.4471   -41326.867    126.60787 
    7400    293.80682    72.634354    122426.62   -37704.528    3586.3286   -41290.856      127.268 
    7450    302.59897   -176.62815    122602.38   -37629.168    3693.6493   -41322.817    128.15392 
    7500    300.47812   -77.269919    122687.31   -37630.389    3667.7613    -41298.15    129.19347 
    7550     296.1201   -69.445699    122610.69   -37673.424    3614.5654   -41287.989    130.02786 
    7600    299.16256   -22.868848    122704.01   -37593.841     3651.703   -41245.544     130.8619 
    7650    296.79718    9.8129051    122652.46   -37625.074    3622.8302   -41247.904    131.56058 
    7700    299.39269    310.28125    122767.64   -37697.026    3654.5121   -41351.538    132.30963 
    7750    298.46381    6.9035663    122897.34   -37695.274    3643.1738   -41338.448    133.31587 
    7800      296.327   -125.76975    122819.07    -37750.92     3617.091   -41368.011    134.16727 
    7850    298.23055    92.568519    122891.13   -37714.948    3640.3265   -41355.274    135.00581 
    7900    298.58292    26.394316    122999.36    -37695.21    3644.6276   -41339.837     135.7371 
    7950    296.07957    87.416503    123041.63   -37669.244    3614.0707   -41283.315    136.77634 
    8000    302.56914    6.6686301    123001.06    -37616.63    3693.2851   -41309.915    137.39435 
    8050    301.19399    133.03879    123261.88   -37652.242    3676.4995   -41328.741    138.52467 
    8100    305.95885   -10.808975    123176.78   -37594.101    3734.6614   -41328.763    139.20033 
    8150    301.23966    58.026185    123207.07    -37641.87    3677.0569   -41318.927     140.4542 
    8200    300.42193    212.12071    123163.74   -37614.357    3667.0754   -41281.432    141.49551 
    8250    300.91003    16.391053    123047.45   -37636.853    3673.0333   -41309.886    142.18142 
    8300    299.15276   -36.635694    122985.97   -37578.664    3651.5834   -41230.247     143.1673 
    8350     304.8513    197.04209    123076.71   -37522.459    3721.1422   -41243.601    144.35175 
    8400    298.98074    181.72189    123233.33   -37539.889    3649.4837   -41189.372    145.45248 
    8450    302.16061   -18.090448     123308.2   -37584.288    3688.2984   -41272.586    146.55189 
    8500    298.00044  0.056037575    123225.13   -37616.238    3637.5176   -41253.755    147.70219 
    8550    297.72087   -170.83856     123170.1   -37624.104    3634.1052   -41258.209    148.77617 
    8600    294.16046    64.358694    123302.59   -37628.475    3590.6453    -41219.12    149.91368 
    8650    297.39342    28.200806    123417.83   -37560.744    3630.1082   -41190.852    151.02619 
    8700    304.56658    -163.4858    123375.78   -37575.039    3717.6667   -41292.706    151.77473 
    8750    298.14664   -83.918319    123286.13   -37614.167    3639.3023   -41253.469      152.741 
    8800    297.74625    158.67424    123188.75   -37621.905     3634.415    -41256.32    153.63894 
    8850    303.68924   -313.87042    123100.73   -37675.837    3706.9575   -41382.795    154.28458 
    8900    297.59303   -15.776576    123048.13   -37705.036    3632.5447   -41337.581    154.92968 
    8950    298.61824    36.348588     122899.7   -37718.783    3645.0588   -41363.842     155.8787 
    9000    298.16035     35.63796    123064.01   -37631.878    3639.4696   -41271.347    156.58028 
    9050    298.57129    7.9699652    123018.61   -37662.702    3644.4858   -41307.187    157.54689 
    9100     296.3871    35.142737    123117.61    -37692.21    3617.8246   -41310.035    158.91641 
    9150    300.51543    -25.49433    123071.98   -37618.793    3668.2166    -41287.01    159.52147 
    9200    299.18656   -37.701977    122979.19   -37583.953     3651.996   -41235.949    160.24735 
    9250    294.24583    77.830159    123117.44   -37638.768    3591.6873   -41230.455    161.46818 
    9300    290.73392   -59.055064    123062.02   -37711.294    3548.8195   -41260.114    162.39044 
    9350    295.78728    48.712987    123083.48   -37702.312     3610.503   -41312.815    163.11721 
    9400     299.3225   -72.265483     123064.4   -37681.929    3653.6553   -41335.584    164.03233 
    9450     293.2034   -109.76597     123090.3   -37681.168    3578.9631   -41260.131    165.06576 
    9500    298.67136   -258.76698    123135.88   -37720.511    3645.7072   -41366.218    165.95202 
    9550    296.43834    137.50817    122967.28   -37730.548      3618.45   -41348.998    166.64978 
    9600    296.84174   -168.46067    122910.31   -37729.108    3623.3741   -41352.482    167.70064 
    9650    300.02583     173.8258     123125.8   -37676.499    3662.2405    -41338.74    168.83212 
    9700     299.8467    50.747119     123275.7   -37623.323    3660.0539   -41283.377    170.42826 
    9750    299.62337   -171.06908    123179.89   -37618.732    3657.3278   -41276.059    171.73577 
    9800    300.36485   -74.097862    123019.94   -37588.139    3666.3786   -41254.518    173.01129 
    9850    302.67811   -201.08556    122780.83    -37589.17    3694.6153   -41283.786    173.89819 
    9900    296.18626   -106.47478    122532.35   -37583.946     3615.373   -41199.319    175.07217 
    9950    300.27175    79.023397    122502.03   -37579.287    3665.2423    -41244.53    176.03036 
   10000    296.98316    63.398063    122650.73   -37605.781    3625.1003   -41230.881    177.49594 
   10050    303.24267   -142.32416    122669.43   -37557.166    3701.5066   -41258.673    178.76343 
   10100    301.78894    18.502038    122819.24   -37549.195    3683.7616   -41232.957    179.76741 
   10150    310.11827    111.61602    122623.82   -37503.521     3785.433   -41288.954    180.99378 
   10200    300.91772    24.933213    122725.81   -37524.113    3673.1272   -41197.241     182.2717 
   10250    303.82027    156.03648    122875.41   -37551.376    3708.5569   -41259.933    183.50992 
   10300    301.33513    164.22449    123011.59   -37527.898    3678.2223   -41206.121    184.56359 
   10350    299.96346    112.30964    123208.47   -37515.087    3661.4791   -41176.566    186.12323 
   10400    303.02886   -61.660469    123086.36   -37506.977    3698.8967   -41205.874    187.15746 
   10450    300.74937   -169.96763     123017.5   -37575.122    3671.0723   -41246.194    188.22108 
   10500    301.25153    29.428049    122995.49   -37554.997    3677.2018   -41232.199    189.51505 
   10550    301.44838   -150.27082    122979.03   -37557.636    3679.6047   -41237.241    190.77516 
   10600     296.9544    292.99999    122992.11    -37594.22    3624.7492   -41218.969    191.96668 
   10650    300.23934   -42.136883    122940.99   -37612.858    3664.8466   -41277.705    193.02339 
   10700    293.23936    13.413497    122883.38   -37625.777     3579.402   -41205.179    193.55487 
   10750    299.48595    50.275493    122816.53   -37653.347    3655.6504   -41308.997    194.80934 
   10800    293.02414    55.588069    122930.51   -37759.191    3576.7748   -41335.966    195.56496 
   10850    291.61984   -140.46485    122947.81   -37761.263    3559.6334   -41320.896    196.56738 
   10900    290.63131   -262.34685     122642.7   -37762.252     3547.567   -41309.819    197.27604 
   10950    291.45528    -96.96638    122526.02   -37789.178    3557.6247   -41346.803    197.80556 
   11000    287.56733    31.022025    122599.66   -37751.021    3510.1668   -41261.188    198.60935 
   11050    294.29461    158.60042    122775.74   -37663.073    3592.2828   -41255.355    199.47624 
   11100    301.77924   -163.16294    122770.91    -37653.62    3683.6433   -41337.263    200.22226 
   11150    292.62955   -106.43531    122704.64    -37698.37    3571.9583   -41270.328    200.92453 
   11200    291.87818    90.907061    122554.14   -37763.117    3562.7868   -41325.904    201.78163 
   11250    298.36197    183.54196    122640.33   -37756.838    3641.9306   -41398.769    203.18497 
   11300    294.12977    135.40047    122811.71   -37694.919    3590.2706    -41285.19    204.68892 
   11350    296.89445    35.279886    122780.87   -37721.326    3624.0175   -41345.343    205.54755 
   11400    294.54655   -146.12653    122715.32    -37672.59     3595.358   -41267.948     206.3535 
   11450    301.53038    38.346473    122733.74   -37646.808    3680.6056   -41327.413    207.47055 
   11500    298.72868     364.9883    122892.29   -37570.584    3646.4069   -41216.991    209.09484 
   11550    298.63195   -210.24923    123037.65   -37463.961    3645.2261   -41109.187    210.41693 
   11600    296.37536   -165.01523    122776.39   -37529.714    3617.6813   -41147.395     210.8046 
   11650    304.97477    28.557273    122824.73     -37419.6    3722.6493   -41142.249    212.12633 
   11700    302.83738   -6.6458787    123189.47   -37384.283    3696.5594   -41080.842    213.58526 
   11750    302.43156    135.55818    123324.26   -37382.685    3691.6058   -41074.291    214.46733 
   11800    300.55978    40.175534     123417.4   -37461.174    3668.7581   -41129.932    215.30622 
   11850    304.34669    160.48412    123531.04   -37490.577    3714.9826    -41205.56     215.9304 
   11900    300.42724    -172.7167    123428.06   -37525.983    3667.1402   -41193.123     217.2002 
   11950    300.49032   -19.957231    123235.32   -37517.845    3667.9102   -41185.755    218.20008 
   12000    301.47478    123.88068    123228.56   -37491.887     3679.927   -41171.814    219.36661 
   12050    302.96623    24.920244    123138.74   -37549.396    3698.1322   -41247.528    220.63318 
   12100    296.24647   -11.847643    122900.33   -37577.654     3616.108   -41193.762    220.94826 
   12150    297.50151    61.327826    122876.93   -37577.977    3631.4275   -41209.405    221.66994 
   12200    295.22571   -103.25616    122740.93   -37548.118    3603.6482   -41151.766    222.43892 
   12250    296.51835    154.76516    122583.58   -37555.384    3619.4267    -41174.81    223.09466 
   12300     293.9789    222.91018    122796.05   -37601.575    3588.4291   -41190.004    224.09159 
   12350    296.81277    -40.47634    122870.53   -37603.951    3623.0205   -41226.972    225.30938 
   12400    297.98665    121.47439    122933.88   -37563.706    3637.3493   -41201.055    226.04673 
   12450    302.24306   -15.362036    122872.01   -37580.673    3689.3048   -41269.978    227.06726 
   12500    300.77917      45.9991    122809.91   -37534.281     3671.436   -41205.717    228.00996 
   12550    301.23306   -2.7200893    122705.75    -37505.86    3676.9764   -41182.836    229.31897 
   12600    302.09925    65.656433    122793.75   -37541.454    3687.5494   -41229.003    230.74188 
   12650    297.96302   -76.498949    122545.48   -37566.603    3637.0609   -41203.664    231.00066 
   12700    303.37025    110.77242    122567.23   -37590.729    3703.0639   -41293.793    231.99505 
   12750    296.31628   -19.135375    122585.76   -37585.172    3616.9601   -41202.132    232.96743 
   12800    297.27863   -30.764374    122729.76   -37606.923    3628.7069    -41235.63    234.08232 
   12850    298.38778    92.831024    122656.93   -37619.961    3642.2458   -41262.206    234.84472 
   12900    293.75588    79.259917    122751.12   -37641.257    3585.7068   -41226.964    236.15824 
   12950    296.70162    81.839794    122836.89   -37620.751    3621.6637   -41242.415    237.32895 
   13000    299.74651    38.692689    122815.34   -37637.532    3658.8309   -41296.363    238.05162 
   13050    292.27263   -87.958315    122788.36   -37643.641    3567.6016   -41211.243    239.37001 
   13100     295.2027   -49.388226    122674.79   -37658.428    3603.3673   -41261.795    239.98445 
   13150    291.93869   -35.808674    122644.58   -37680.061    3563.5255   -41243.586    240.40958 
   13200     295.3644    133.86398    122845.31   -37685.416    3605.3411   -41290.757    241.65728 
   13250    297.09543    45.094494    122881.86    -37712.73    3626.4707   -41339.201    242.50147 
   13300    300.03976    -247.6388    122743.01   -37795.418    3662.4105   -41457.829    243.73067 
   13350    289.80351    87.012728    122661.06   -37801.603    3537.4625   -41339.066    244.26776 
   13400    289.74169    44.578391    122803.74   -37840.036    3536.7079   -41376.744    245.37538 
   13450    298.13075    -127.8154    122702.64   -37734.686    3639.1083   -41373.795    246.03992 
   13500    292.16671    142.41085    122756.59   -37724.114    3566.3087   -41290.423    246.47146 
   13550    294.49392    46.805902    122674.11   -37688.401    3594.7156   -41283.117    246.88669 
   13600    293.38661    103.12306    122872.91   -37682.065    3581.1994   -41263.264    248.11543 
   13650    298.80193   -88.752552    123065.34   -37710.731     3647.301   -41358.032    249.31087 
   13700    295.01331     185.9231    123075.17   -37676.701    3601.0555   -41277.757    250.18991 
   13750    296.06608   -248.72322    122907.94   -37617.681     3613.906   -41231.587     250.4904 
   13800    295.13463    185.85817    122887.57   -37618.694    3602.5364    -41221.23    251.21219 
   13850      293.762   -68.230384    122915.71   -37623.929    3585.7815   -41209.711     252.2451 
   13900    300.81035     14.56467    122880.38   -37575.329    3671.8167   -41247.145    252.71996 
   13950    302.41697   -38.548772    122816.81   -37509.869    3691.4276   -41201.296    252.89428 
   14000    304.59358    29.496598    122723.55   -37499.165    3717.9963   -41217.162    253.98963 
   14050    297.55523    202.12985    122810.16    -37545.56    3632.0832   -41177.643    254.63263 
   14100    300.01585   -204.55792    122756.49   -37587.518    3662.1186   -41249.636    255.94426 
   14150    295.32194    61.938814    122587.31   -37593.383    3604.8228   -41198.205    256.62534 
   14200    298.68131    85.406802    122634.02   -37577.657    3645.8286   -41223.486    257.71576 
   14250    299.07884   -57.793546    122742.01   -37558.401    3650.6811   -41209.082    258.82474 
   14300    295.60848   -270.31234    122678.44    -37613.83    3608.3204    -41222.15    259.57388 
   14350    293.83656    1.0813919    122406.49   -37649.468    3586.6917   -41236.159    259.80747 
   14400    300.10774    92.095951    122526.63   -37667.732    3663.2403   -41330.972     261.4797 
   14450    293.29502    94.014139    122636.73   -37674.762    3580.0814   -41254.844    262.95569 
   14500    300.22702   -123.58141    122682.74   -37678.042    3664.6962   -41342.738    263.89694 
   14550    293.94776    -57.95773     122680.4   -37723.543     3588.049   -41311.592    264.33232 
   14600    296.68005    -170.9969    122516.29   -37675.497    3621.4004   -41296.898    265.06743 
   14650    292.43329    99.672021    122630.78   -37655.501    3569.5628   -41225.064    266.37951 
   14700    297.89889   -138.87897    122539.87   -37630.043    3636.2781   -41266.321    267.75175 
   14750    299.84709    148.42269    122516.26   -37523.989    3660.0586   -41184.047    268.68829 
   14800    296.18028    102.73582    122694.85   -37576.534       3615.3   -41191.834    269.77756 
   14850    295.37271   -135.67563    122568.72   -37594.549    3605.4425   -41199.992    270.59187 
   14900    299.78307    124.01365    122527.79   -37550.042    3659.2772    -41209.32    271.74415 
   14950    296.96097    219.93428    122749.66   -37629.122    3624.8295   -41253.951    273.21844 
   15000    301.83503    85.391001    122864.75    -37630.01    3684.3243   -41314.334    273.99371 
   15050    298.55156    174.82898    123002.47   -37636.548    3644.2448   -41280.793    274.72926 
   15100    288.75001    213.19196    122999.99    -37657.33    3524.6031   -41181.933    275.50198 
   15150    300.84774   -66.547173    123010.04   -37635.544    3672.2731   -41307.817    276.60849 
   15200    299.50244   -69.607308    122890.52   -37613.198    3655.8517    -41269.05    277.82459 
   15250    298.23785    5.3772753    122926.86   -37620.369    3640.4156   -41260.785    278.76114 
   15300    299.18149   -56.568917       122858   -37660.525    3651.9341   -41312.459    279.63333 
   15350    291.09034    -17.94418    122762.71   -37674.679    3553.1702   -41227.849    280.39715 
   15400    293.70233    165.32831    122847.01   -37708.861    3585.0532   -41293.914     281.4746 
   15450    290.57812   -176.48239    122692.72   -37687.922    3546.9178   -41234.839    281.71941 
   15500    299.04643   -129.80651    122664.61   -37631.279    3650.2854   -41281.564    282.96236 
   15550     298.8695   -37.012461    122619.06   -37542.584    3648.1258    -41190.71    284.52758 
   15600    302.36617    232.81976    122769.29   -37528.968    3690.8076   -41219.775    285.77716 
   15650    300.62169     17.04555    122788.41    -37511.98    3669.5137   -41181.494    287.12887 
   15700    306.43898   -164.49435    122924.14   -37498.836     3740.522   -41239.358    288.12848 
   15750    304.05875   -90.831425     122850.3   -37497.779    3711.4679   -41209.247    289.32516 
   15800    301.43082    241.54306    123096.87   -37513.873    3679.3903   -41193.263    291.03537 
   15850    300.08152   -79.014337    123148.63   -37527.093    3662.9202   -41190.013     292.8016 
   15900    303.77735   -35.893964    122994.78   -37519.559    3708.0331   -41227.592    293.82768 
   15950    304.38725   -16.222792    123036.86   -37543.184    3715.4777   -41258.662    294.76619 
   16000    296.74814   -22.902234    122878.77   -37571.767    3622.2316   -41193.999    295.64945 
   16050     294.4363    147.98756    122858.26   -37628.026    3594.0123   -41222.038    296.72576 
   16100    294.14421     94.81226     122948.1   -37625.727    3590.4469   -41216.174    297.97609 
   16150    305.07159    52.984069    123184.06   -37563.849     3723.831    -41287.68    299.29534 
   16200    294.60396    111.68957    123209.46   -37608.076    3596.0589   -41204.135    300.45919 
   16250    298.15012   -194.99126     123190.6   -37587.886    3639.3448   -41227.231    301.81041 
   16300    296.35213    17.957044    123001.87   -37613.518    3617.3977   -41230.916    302.88721 
   16350    297.64365    151.05975    122867.99    -37580.89    3633.1626   -41214.053    303.57091 
   16400    297.73647    66.662113    122862.98   -37631.996    3634.2955   -41266.291    304.89243 
   16450    297.99522    131.66171    122840.55   -37579.996     3637.454    -41217.45    306.08223 
   16500    302.51497    50.772013    123081.72   -37543.879    3692.6239   -41236.503    307.82384 
   16550    301.76362   -183.63535    123093.17    -37561.81    3683.4526   -41245.263    308.39126 
   16600     298.6902    256.44488    123113.56   -37515.155    3645.9372   -41161.092    309.58421 
   16650    296.22706   -124.72858    123370.79   -37571.695     3615.871   -41187.566    310.44325 
   16700    299.23779   -75.640323    123411.77   -37525.335    3652.6213   -41177.956    311.42003 
   16750    299.67264   -284.59563     123160.4   -37572.197    3657.9293   -41230.127    311.60211 
   16800     301.4308    89.278435    123149.52   -37588.558    3679.3901   -41267.948    311.79826 
   16850    298.62429    -181.2983    123054.77   -37614.404    3645.1326   -41259.536    312.06359 
   16900    297.65422   -105.02798    122899.59   -37607.491    3633.2916   -41240.782    312.77013 
   16950    299.30689   -177.37318    122840.03   -37641.321    3653.4648   -41294.786    313.25302 
   17000    294.43748    54.866647    122756.58   -37675.801    3594.0267   -41269.828    313.86941 
   17050     300.3099    204.62273    122731.06   -37595.163    3665.7079   -41260.871    315.32547 
   17100     302.6337   -54.195037    122610.52   -37635.441    3694.0731   -41329.515    316.10727 
   17150       297.17    102.34788     122824.7   -37682.157    3627.3809   -41309.538    317.48463 
   17200    298.05314   -304.46298     122894.5     -37692.9    3638.1609   -41331.061    319.00763 
   17250     295.7107    37.688881    122834.09   -37722.692    3609.5682   -41332.261    319.93456 
   17300    295.58435    37.200479    122976.39    -37760.32    3608.0259   -41368.346    320.47851 
   17350    295.14631    7.4350466    122954.53   -37726.196     3602.679   -41328.875    321.31433 
   17400    297.99717    3.3080416    122886.48   -37799.867    3637.4778   -41437.345    322.33937 
   17450    295.93515    136.09182    122938.88   -37707.587    3612.3079   -41319.895    323.21176 
   17500    299.46084    6.9297328    122930.47   -37693.591    3655.3439   -41348.935     323.9077 
   17550    301.32617   -93.732178    123098.99   -37667.511     3678.113   -41345.624    324.99548 
   17600    297.04442   -56.534665    122906.91   -37716.938     3625.848   -41342.786    325.53145 
   17650    293.14464    5.6557457    122825.73   -37705.157    3578.2457   -41283.403    326.42681 
   17700    298.28676    16.127109    122921.84   -37754.994    3641.0126   -41396.007    327.15647 
   17750    298.03497    26.463816    122949.81   -37767.539    3637.9392   -41405.479    327.75426 
   17800    297.64025   -147.51857    122995.31     -37744.6     3633.121   -41377.721     328.4436 
   17850    298.92513   -348.90575    122715.27   -37666.926    3648.8048   -41315.731    328.92067 
   17900    296.27361   -110.73381    122688.34    -37655.29    3616.4393   -41271.729    329.54762 
   17950    296.89062    30.678505    122739.55   -37662.053    3623.9707   -41286.024    329.86456 
   18000    300.29592   -275.81355    122633.94    -37597.99    3665.5372   -41263.527    330.95862 
   18050    297.67561    306.26574    122720.25   -37563.982    3633.5526   -41197.535     332.0986 
   18100    302.83085    107.31542    122798.32   -37563.476    3696.4797   -41259.956    333.13426 
   18150    296.08642   -112.61186    122803.38   -37608.731    3614.1544   -41222.885    334.37737 
   18200    298.52425   -20.662797     122849.2   -37651.294    3643.9115   -41295.205    335.36122 
   18250    293.47934   -12.199348    122866.54   -37626.011    3582.3313   -41208.342     335.9972 
   18300    300.52371    26.160104    122589.41   -37592.545    3668.3178   -41260.863    335.71412 
   18350    296.69093   -2.7355265    122705.55   -37633.329    3621.5333   -41254.862    336.54607 
   18400    297.89521   -31.932137    122715.59    -37699.32    3636.2332   -41335.553    337.29002 
   18450    294.63441    60.396164    122779.54   -37686.561    3596.4305   -41282.992    337.63992 
   18500    296.32716    5.4816513    122803.98   -37655.666    3617.0929   -41272.759    338.40372 
   18550    297.85245   -20.604571    122827.91   -37626.107    3635.7113   -41261.818    339.46993 
   18600    306.24041   -207.00761    122730.08   -37585.595    3738.0982   -41323.694    340.05735 
   18650    300.41908    74.980639    122789.72   -37643.782    3667.0407   -41310.823    341.04585 
   18700    293.22918    86.998288    123036.63   -37616.929    3579.2777   -41196.207    342.49306 
   18750    300.18735   -205.52329    122885.84   -37643.798     3664.212    -41308.01    343.39547 
   18800    297.53666   -39.591598    122659.85   -37640.697    3631.8566   -41272.553    343.78277 
   18850    294.68648    112.68135    122691.09   -37597.752    3597.0661   -41194.818    345.03551 
   18900    295.90115    95.461718    122806.31   -37599.696    3611.8928   -41211.589    346.78496 
   18950    303.21687    34.773976    122790.12   -37583.872    3701.1916   -41285.063    347.53694 
   19000    294.42463    2.3778315    122804.02   -37574.879    3593.8698   -41168.749    348.12104 
   19050    292.36417    97.067155    122819.58   -37578.794     3568.719   -41147.513    348.94887 
   19100    300.31692    60.820335    122795.15   -37535.168    3665.7936   -41200.961    349.85272 
   19150    294.86602   -165.84722    122746.54   -37577.622    3599.2576   -41176.879    350.92713 
   19200    298.56123   -3.8018478    122763.76   -37589.112    3644.3629   -41233.475    352.14573 
   19250    301.64473   -185.15843    122651.76     -37548.1    3682.0013   -41230.101    352.73673 
   19300     304.8062    156.42206    122771.93   -37449.834    3720.5917   -41170.426    354.29445 
   19350    299.43208    74.747457    122682.65   -37523.327    3654.9929    -41178.32    355.02732 
   19400    293.30908    83.966259    122786.62   -37538.203    3580.2529   -41118.456    356.29975 
   19450    299.86896    78.503614    122746.72   -37541.833    3660.3257   -41202.159    357.08674 
   19500    300.77025   -9.9561017    122643.71   -37500.036    3671.3272   -41171.363    358.44582 
   19550    305.28718    344.02785    122849.95   -37508.047    3726.4627   -41234.509    360.29377 
   19600    303.42414    71.275392    122956.98   -37531.115    3703.7216   -41234.837    361.69538 
   19650    305.87123    18.132476    122912.05   -37477.834    3733.5919   -41211.426    362.55215 
   19700    298.98529    165.00839    123044.14   -37550.745    3649.5392   -41200.284    364.03297 
   19750    299.08074    12.490806    123132.43   -37523.114    3650.7043   -41173.818    365.47272 
   19800      300.129    76.920203    123333.36   -37526.745    3663.4998   -41190.244    366.70053 
   19850    306.38763   -79.185968     123320.5   -37465.269    3739.8953   -41205.165    367.31623 
   19900    304.01053    72.489219    123240.56   -37572.631    3710.8794    -41283.51    368.11413 
   19950    304.00249     -32.7431    123305.33   -37581.777    3710.7812   -41292.558    369.18576 
   20000     303.9067   -121.06998    123176.85   -37639.524     3709.612   -41349.136    370.32177 
   20050    293.98655   -178.51538    122967.47   -37692.163    3588.5224   -41280.685    371.68267 
   20100    296.36727   -252.96313    122910.53    -37700.75    3617.5826   -41318.333    372.30731 
   20150    296.75845    197.68172    122944.37   -37702.017    3622.3574   -41324.375    373.32306 
   20200     297.1444   -74.266493    123002.04   -37713.752    3627.0685   -41340.821    373.94904 
   20250     297.4825   -18.249811    122975.03    -37700.88    3631.1955   -41332.075    374.52577 
   20300     299.9465     140.6082    122969.38   -37644.367    3661.2722    -41305.64    375.65928 
   20350    303.63256   -6.3174486    123132.51   -37590.428    3706.2657   -41296.694     376.3911 
   20400    295.36911   -120.84308    122999.84   -37654.133    3605.3986   -41259.532    376.72994 
   20450    293.55116   -77.353947    122812.88   -37668.712    3583.2079    -41251.92    377.28098 
   20500    293.70608    23.806813    122744.96   -37691.525    3585.0989   -41276.624    377.81051 
   20550    292.96703   -210.36625    122743.86   -37739.932    3576.0778    -41316.01    378.34993 
   20600    294.88302    56.395975     122762.6   -37714.999    3599.4652   -41314.464    378.93415 
   20650    293.66089    158.31893     122789.1    -37741.83    3584.5474   -41326.377    380.22294 
   20700    293.42292   -64.715599    122736.39   -37681.767    3581.6425    -41263.41    381.52377 
   20750    295.18932    98.816159    122720.64   -37651.706     3603.204    -41254.91    382.84505 
   20800    301.46257   -12.919356    122709.76   -37593.029    3679.7779   -41272.807    384.00446 
   20850     297.8715    41.245583     122617.7   -37560.277    3635.9438   -41196.221    384.48156 
   20900    296.47508     -97.9593    122620.33   -37587.428    3618.8986   -41206.327    385.34331 
   20950    292.96225     314.6375    122713.73   -37597.201    3576.0195    -41173.22     386.5696 
   21000    298.10809   -315.45255    122962.83   -37606.781    3638.8317   -41245.612    387.74252 
   21050    303.42002    80.721161    122606.48   -37595.557    3703.6713   -41299.228    388.47901 
   21100    302.56886    122.84196     122804.3   -37594.684    3693.2817   -41287.966    389.83395 
   21150    295.98499    236.68226    122977.54   -37600.457    3612.9163   -41213.374     391.2221 
   21200    299.28201   -271.48127    122934.53   -37589.187     3653.161   -41242.348     391.7414 
   21250    302.75382   -170.09595    122799.06   -37566.594    3695.5394   -41262.133    392.30259 
   21300    302.07444   -73.743486    122796.78    -37554.61    3687.2466   -41241.857    393.85184 
   21350     300.9999   -42.326742    122625.78   -37600.236    3674.1304   -41274.366    394.59907 
   21400    297.51484    137.10875    122742.85   -37601.252    3631.5902   -41232.843    395.73517 
   21450    300.36479    224.60145     122861.7    -37525.67    3666.3779   -41192.047    396.70398 
   21500    301.31494   -39.119289    122771.48   -37527.024    3677.9759   -41204.999      397.687 
   21550    306.49815    10.259526    122716.33    -37502.77    3741.2443   -41244.014    398.32119 
   21600    306.12288     131.4204    122818.31   -37497.335    3736.6635   -41233.998    398.80461 
   21650    303.27422   -223.22794    122837.29   -37560.765    3701.8916   -41262.656      399.536 
   21700    302.09742    25.234448     122819.6   -37620.754    3687.5271   -41308.281    400.14784 
   21750    300.17802    109.93409    122827.66   -37656.868    3664.0981   -41320.966     401.0081 
   21800    299.43275    124.78507    122793.69   -37651.399     3655.001     -41306.4    402.14896 
   21850    294.85407   -114.00924    122744.08   -37645.028    3599.1118   -41244.139    402.93207 
   21900    297.83208    16.660145    122898.48   -37641.999    3635.4626   -41277.462     403.9311 
   21950    297.86262   -15.480437    122705.66   -37645.549    3635.8354   -41281.384    404.44272 
   22000    293.71273    -18.27991    122676.17    -37708.33    3585.1802    -41293.51    404.82578 
   22050     297.0184     206.9402    122637.14   -37658.082    3625.5305   -41283.612    405.02471 
   22100    298.91619     3.104252     122758.5   -37680.122    3648.6957   -41328.817    406.16937 
   22150    294.87132   -61.578169    122806.52    -37774.73    3599.3223   -41374.053    406.97149 
   22200    291.84257   -158.12693     122793.3   -37829.494    3562.3522   -41391.847    408.17335 
   22250    299.99544   -28.227273    122779.61   -37759.605    3661.8695   -41421.474    409.13449 
   22300    292.89914     27.04442    122787.96   -37736.298     3575.249   -41311.547    410.50004 
   22350    291.82194   -236.03093    122566.07   -37621.327    3562.1004   -41183.427    410.85727 
   22400      299.755    79.083269    122587.62   -37607.867    3658.9346   -41266.802    411.04299 
   22450    302.10748    10.387887    122782.14    -37614.03      3687.65    -41301.68     412.9237 
   22500    303.93241   -169.64394    122802.87   -37625.782    3709.9258   -41335.708    413.77055 
   22550    296.46688    8.2509383     122846.5   -37645.864    3618.7984   -41264.663    415.21457 
   22600    288.46977    82.995162    122904.46   -37625.087    3521.1824    -41146.27    416.85245 
   22650    292.04667    172.20492    123084.85   -37672.977    3564.8435   -41237.821    417.43955 
   22700    297.57805    132.73313    123122.86   -37669.952    3632.3618   -41302.314    418.24084 
   22750    303.25315   -279.46317    123057.76   -37680.542    3701.6344   -41382.176    418.66668 
   22800    299.09502   -121.68848     122999.4   -37629.985    3650.8785   -41280.863    418.67416 
   22850    299.51585   -264.72838    122801.54   -37651.749    3656.0154   -41307.765     418.6049 
   22900    298.09421   -203.17344    122661.81   -37665.587    3638.6622   -41304.249    418.93016 
   22950    293.49163   -207.11709    122529.65   -37727.065    3582.4813   -41309.546    418.89634 
   23000     296.3758   -92.150784    122446.33   -37730.863    3617.6867   -41348.549    419.53135 
   23050    294.07208    30.134126    122470.67   -37733.469    3589.5665   -41323.036    420.08362 
   23100    302.83619   -234.00155    122520.01   -37645.454    3696.5449   -41341.999    420.36596 
   23150     294.1498    224.01259     122548.2   -37727.291    3590.5151   -41317.806    420.80515 
   23200    298.71311    -236.4079    122605.16   -37646.999    3646.2168   -41293.216    422.02236 
   23250    292.27392    -58.97605    122467.19   -37626.874    3567.6174   -41194.491      422.617 
   23300    295.95575   -1.6872012    122641.69   -37616.787    3612.5593   -41229.347    423.41815 
   23350    299.79117    90.567322     122847.4   -37564.441    3659.3761   -41223.817    424.55396 
   23400    297.55828    -37.63571    122867.29   -37591.225    3632.1205   -41223.346     425.7101 
   23450     300.0583   -310.51603    122696.63   -37575.036    3662.6367   -41237.673    426.14106 
   23500    300.56606    4.2732154    122672.15   -37583.066    3668.8348   -41251.901    427.29761 
   23550    299.97589    191.69221    122682.83   -37516.733    3661.6309   -41178.364    427.86159 
   23600    298.57966    -108.0994    122680.47   -37520.811    3644.5879   -41165.399    428.43691 
   23650    303.92389   -79.199572    122616.73   -37559.574    3709.8218   -41269.395     428.7756 
   23700    303.56933    268.35086    122727.93   -37550.494    3705.4939   -41255.987     429.9525 
   23750    298.33799    34.770423    122857.48   -37532.634     3641.638   -41174.272    431.34896 
   23800    304.03424    48.449632    122875.03   -37540.736    3711.1687   -41251.905    432.43336 
   23850    299.86387   -51.901561    122882.26   -37626.452    3660.2634   -41286.715    433.14502 
   23900    301.01871    129.69585    123106.01   -37650.923      3674.36   -41325.283    434.17861 
   23950    297.55945    40.487961    123055.42   -37627.822    3632.1348   -41259.957    435.01302 
   24000    299.96964    28.678264    123024.16   -37614.382    3661.5546   -41275.937    435.96558 
   24050    301.39873   -156.65578    122916.25   -37604.231    3678.9987    -41283.23    436.84166 
   24100    300.70839    80.858254    122975.76    -37582.95    3670.5721   -41253.522    437.93147 
   24150    302.10528   -116.96194    123029.48   -37568.827    3687.6231    -41256.45    438.85839 
   24200    301.28266   -90.036054    123054.29   -37643.821    3677.5818   -41321.403    439.20074 
   24250    295.76506   -142.20175    123031.97   -37674.777    3610.2317   -41285.009    439.41021 
   24300    299.36492   -24.556315    122910.71   -37690.799    3654.1731   -41344.972    439.22023 
   24350    293.91234   -100.27102    122784.45   -37696.841    3587.6166   -41284.457    439.29663 
   24400    292.45624    51.239943    122558.88   -37732.348    3569.8429    -41302.19    439.56079 
   24450     295.7434    3.2443892     122778.7   -37670.535    3609.9673   -41280.502     440.2663 
   24500    299.41762    24.144675    122894.93   -37677.065    3654.8164   -41331.881    440.89448 
   24550    290.65204     4.656828    122923.49   -37703.239      3547.82   -41251.059    442.05975 
   24600    297.61932   -69.073334    122753.55    -37731.12    3632.8656   -41363.985    442.42389 
   24650    299.02605   -71.827784    122820.21   -37712.271    3650.0367   -41362.308    442.85375 
   24700    296.37951    152.84411    122881.55   -37739.058    3617.7319    -41356.79    443.98277 
   24750    291.26441   -60.655292    123017.96   -37652.173    3555.2949   -41207.468    445.53002 
   24800    297.56338   -49.174408    122903.15   -37686.735    3632.1827   -41318.918    445.88239 
   24850     299.2344   -1.5631948    122724.52   -37663.827    3652.5799   -41316.406    446.56798 
   24900    297.15376    196.98924    122876.88   -37716.898    3627.1828   -41344.081    447.29655 
   24950    294.67588   -72.097779    122950.62   -37738.105    3596.9368   -41335.041    447.71045 
   25000    302.37892   -7.7465429    122924.85   -37691.348    3690.9633   -41382.311    448.58944 
   25050    296.49878   -200.18775    122815.36   -37768.463    3619.1878   -41387.651    449.00518 
   25100     295.3704    145.36644    122753.87   -37756.602    3605.4143   -41362.017    449.41002 
   25150    288.59895    84.382686    122869.46   -37787.574    3522.7592   -41310.333    450.76635 
   25200    295.54004    88.982136    122877.67   -37867.833     3607.485   -41475.318    452.08033 
   25250    290.15397   -22.478824    122966.19    -37853.19    3541.7404   -41394.931    453.47539 
   25300    294.22083   -113.59211    122856.05   -37825.401    3591.3822   -41416.783    454.24298 
   25350    293.87065   -90.142622    122816.11   -37716.352    3587.1077    -41303.46    455.35187 
   25400    290.23086   -85.953873    122867.14   -37753.697    3542.6789   -41296.376    455.67594 
   25450    297.78136    117.87284    122821.86   -37720.247    3634.8435    -41355.09    456.85467 
   25500    298.85419    142.48919    122875.16   -37707.378    3647.9389   -41355.317    458.18135 
   25550    302.61315    -234.4106    122818.62    -37637.49    3693.8223   -41331.312    458.52957 
   25600    298.61698     -153.489    122676.55   -37555.255    3645.0435   -41200.299    459.04528 
   25650    299.45387    6.3656146    122625.43   -37612.432    3655.2589   -41267.691    460.04044 
   25700    299.89989   -16.523386    122645.65   -37675.045    3660.7032   -41335.748    461.43412 
   25750    297.03563   -91.624643    122719.52   -37686.372    3625.7408   -41312.113    462.78925 
   25800    302.52625    120.48167    122699.37   -37555.441    3692.7616   -41248.202    463.96159 
   25850    298.44126    246.16677    122863.71   -37534.186    3642.8985   -41177.084    465.99515 
   25900    300.49418    169.54706    123212.81   -37523.548    3667.9573   -41191.506    467.76754 
   25950    293.94148   -146.57733    123179.12   -37586.478    3587.9724    -41174.45    468.84782 
   26000    303.22059     -185.103    122838.57     -37558.9     3701.237   -41260.137    469.16025 
   26050    298.47918    70.462117    122752.47   -37580.862    3643.3614   -41224.223    469.99008 
   26100    299.53555   -87.640341    122755.82   -37577.317    3656.2559   -41233.573    471.39847 
   26150    302.91802    59.229264    122590.56   -37557.361    3697.5437   -41254.905    471.97222 
   26200    302.80392   -136.96524    122592.08   -37603.222    3696.1509   -41299.373    473.06983 
   26250    295.58447   -33.016733    122577.17   -37634.787    3608.0273   -41242.815    473.54102 
   26300    295.46552    236.59369    122647.75   -37655.897    3606.5754   -41262.472    474.94028 
   26350    300.15669    108.98583    122930.57   -37661.856    3663.8377   -41325.693    476.49302 
   26400     295.0554    37.480998    123032.43   -37679.178    3601.5693   -41280.747    477.72337 
   26450    296.99698   -312.91135    122968.33   -37574.557    3625.2691   -41199.826    478.51193 
   26500    303.47055     94.50171    123022.27   -37577.242    3704.2882   -41281.531    480.05522 
   26550    301.58633    194.46475    123033.84   -37566.786    3681.2886   -41248.074    481.02018 
   26600    297.20496   -140.32941    122878.07   -37544.279    3627.8077   -41172.086    481.21786 
   26650    297.30244   -150.77255    122886.09   -37537.674    3628.9976   -41166.672     481.7012 
   26700    297.95182   -207.76022     122689.4   -37495.541    3636.9242   -41132.465    481.24187 
   26750    306.05685    47.648856    122623.02   -37491.229    3735.8576   -41227.087    481.53335 
   26800    296.55935    77.220193    122789.59    -37556.19    3619.9271   -41176.117    481.98373 
   26850    299.22975   -122.21073    122894.63   -37582.781    3652.5231   -41235.304    483.08535 
   26900    298.06688   -102.21714    122840.78   -37527.483    3638.3287   -41165.812    483.67911 
   26950    296.74052    56.653936     122838.5   -37520.776    3622.1386   -41142.915    484.92712 
   27000    299.95247   -131.46222    122821.59   -37538.748     3661.345   -41200.093    485.66074 
   27050    303.28296    12.228132    122890.84   -37563.455    3701.9983   -41265.453    486.63847 
   27100     296.8251   -98.292293    122942.67   -37545.876    3623.1709   -41169.047    487.86011 
   27150    304.21859   -175.20772    122753.86     -37571.1     3713.419   -41284.519    487.83656 
   27200    303.71538    150.33424    122847.53   -37602.111    3707.2767   -41309.388    489.29649 
   27250    305.69274    33.838615    122854.89   -37579.658    3731.4131   -41311.071    490.53835 
   27300    310.08283   -110.21073     122941.4   -37525.705    3785.0004   -41310.706    491.27814 
   27350    304.28017   -254.52887    123046.24   -37509.662    3714.1707   -41223.833    492.74341 
   27400    304.41963     21.41259    123019.29   -37542.955     3715.873   -41258.828     493.6149 
   27450    300.32595    81.875059    122987.28   -37587.858    3665.9038   -41253.762    493.81061 
   27500    296.99502   -26.406924    122931.96   -37662.046    3625.2451   -41287.291     494.8062 
   27550    287.93868    21.736516    122961.48   -37710.252    3514.6997   -41224.951     496.5597 
   27600    291.52988   -275.39614    122645.78   -37747.916    3558.5354   -41306.452    496.67984 
   27650    292.83221    155.16227    122713.46   -37718.412    3574.4321   -41292.844    497.72948 
   27700    295.66393    298.55669    122837.01   -37655.623    3608.9973    -41264.62    498.56828 
   27750    298.10128   -225.48964    122897.39   -37574.506    3638.7486   -41213.255    499.56773 
   27800    301.34976    17.043378    122718.23   -37567.726    3678.4008   -41246.126    500.31296 
   27850    295.03017    238.24747    122709.13   -37596.574    3601.2613   -41197.835    501.69826 
   27900    297.13877    195.95952    122795.07   -37644.778    3626.9998   -41271.778    502.87063 
   27950    292.53432   -90.271234    122987.74   -37637.971    3570.7959   -41208.767    503.94606 
   28000    295.74438    168.38531    123079.95   -37682.783    3609.9792   -41292.762    505.13633 
   28050    293.79962    51.726591    123104.09   -37691.939    3586.2407   -41278.179    506.79279 
   28100     297.5183   -100.22258    122944.04   -37666.664    3631.6325   -41298.296    507.51937 
   28150    294.52626    100.22943    122898.05   -37636.337    3595.1104   -41231.447    508.30486 
   28200    296.07505    47.233427    122928.18   -37656.525    3614.0155   -41270.541    509.60962 
   28250    297.71613    149.04164    123017.64   -37641.428    3634.0473   -41275.475     510.7945 
   28300    302.69779     82.23611    123124.65   -37650.668    3694.8555   -41345.523    512.23316 
   28350    300.24863   -247.20957    122903.33   -37624.215      3664.96   -41289.175    512.34096 
   28400     298.8491    131.03901    122913.54   -37646.748    3647.8768   -41294.624    513.31213 
   28450     295.9767     223.2248    123125.55     -37617.6    3612.8151   -41230.415    514.20088 
   28500    296.20666      54.7145    123273.78   -37651.003    3615.6221   -41266.625    515.48522 
   28550    291.13426   -3.0978978    123226.65   -37652.185    3553.7062   -41205.891    516.34372 
   28600    296.61248    189.88488    123216.29   -37667.122    3620.5757   -41287.697    516.95579 
   28650     296.3041   -120.98784    123183.41   -37656.511    3616.8115   -41273.323    517.29901 
   28700    295.19634   -119.06089    122967.88   -37675.975    3603.2897   -41279.264    517.61214 
   28750    293.53274    46.823067    123015.42   -37685.472     3582.983   -41268.455    518.76239 
   28800    296.27091   -197.44459    122896.01   -37706.492    3616.4063   -41322.898    519.73793 
   28850    294.60024   -126.31181    122729.16   -37691.933    3596.0134   -41287.946     520.8792 
   28900    301.51704   -166.77144    122596.92   -37683.281    3680.4428   -41363.724    521.76472 
   28950    293.82443   -28.375965    122604.79   -37665.197    3586.5436    -41251.74    522.25229 
   29000    303.04508    5.9729201    122394.85   -37656.592    3699.0947   -41355.687    523.01309 
   29050    300.56771   -31.190061    122591.36   -37627.573    3668.8549   -41296.428    524.29687 
   29100    296.47108    286.67291    122691.69   -37596.682    3618.8497   -41215.532    525.83032 
   29150    302.83815    217.65406    122876.01   -37562.994    3696.5688   -41259.563    526.99508 
   29200    302.99163    56.986888    123036.71    -37515.63    3698.4422   -41214.072    528.90007 
   29250    295.70538   -52.601109     123213.7   -37553.965    3609.5032   -41163.468     530.7686 
   29300    301.41001   -49.539896    123309.61   -37534.292    3679.1363   -41213.428    531.56969 
   29350    302.64253   -114.62771    123387.45   -37560.792    3694.1809   -41254.973    532.68114 
   29400    298.05229   -95.991788    123330.06   -37565.202    3638.1506   -41203.353    532.94772 
   29450    302.16143   -110.90847       123364   -37519.811    3688.3084    -41208.12    533.83454 
   29500    300.33957   -113.70577     123200.9   -37566.783      3666.07   -41232.853    534.58663 
   29550    299.13926    4.7959361    123088.71   -37581.605    3651.4186   -41233.024    535.36792 
   29600    302.28952    12.883929    123163.57   -37555.872     3689.872   -41245.744    536.49988 
   29650    301.73997    113.17635    123238.08   -37513.528    3683.1639   -41196.692     537.3841 
   29700    293.73653   -154.07553    123131.14   -37611.724    3585.4706   -41197.194    538.35459 
   29750    295.56041   -26.044992    122806.48   -37664.657    3607.7336   -41272.391    537.43528 
   29800    297.04951   -93.469363    122724.01   -37737.413    3625.9102   -41363.324    537.90719 
   29850    297.21028    51.081353    122793.27   -37702.161    3627.8727   -41330.034    538.98574 
   29900    293.52671    215.61546    122862.06    -37676.06    3582.9095   -41258.969    540.54646 
   29950     297.5811   -98.933575    122824.87   -37736.161    3632.3991   -41368.561    541.93588 
   30000    302.43794    18.623814    122791.98    -37754.37    3691.6836   -41446.054    543.48803 
   30050    292.81405   -185.08545    122851.56    -37720.63    3574.2104   -41294.841    545.54092 
   30100    298.24308    112.20341     122791.1   -37664.586    3640.4794   -41305.065     546.1308 
   30150    297.84902   -93.441314    122849.27   -37654.317    3635.6694   -41289.987    547.14316 
   30200    291.72426    83.704524    122790.57   -37703.277     3560.908   -41264.185    547.41236 
   30250    301.89773    -370.6785    122657.27   -37667.695    3685.0896   -41352.785      548.226 
   30300     295.2706    149.98185    122726.82   -37693.222    3604.1961   -41297.418    549.54405 
   30350    292.83637    306.77109    122985.58   -37625.665    3574.4829   -41200.148    551.00987 
   30400    302.58702     36.22434    123044.16   -37667.131    3693.5033   -41360.634    552.25097 
   30450     292.6969   -135.91493    123134.46   -37784.027    3572.7805   -41356.808     553.9868 
   30500    295.84086   -35.196496    123076.13   -37784.276    3611.1569   -41395.433    555.14284 
   30550    292.27902    15.875311    122934.31   -37789.403    3567.6796   -41357.083    555.54832 
   30600    299.25438    109.83304    123029.97   -37732.983    3652.8238   -41385.807    556.43382 
   30650    292.01349     2.515527    123133.63   -37731.704    3564.4384   -41296.143    557.95525 
   30700    291.27948    19.741278    123041.41   -37751.556    3555.4789   -41307.035    558.31157 
   30750    299.14858     109.9225     123109.5   -37699.308    3651.5324    -41350.84     558.7456 
   30800    298.77886   -114.24622    123143.82   -37685.598    3647.0194   -41332.618    559.71492 
   30850    304.08758    36.462545    123193.28   -37586.075    3711.8198   -41297.895    560.84283 
   30900    300.78596   -67.962491    123144.97   -37620.462    3671.5189   -41291.981    562.17599 
   30950    302.38444   -276.60692    123063.98   -37624.081    3691.0306   -41315.111    562.90625 
   31000    296.81417    55.749373    122881.28   -37644.356    3623.0376   -41267.394    563.36463 
   31050    296.67515    66.854699    122880.47   -37647.411    3621.3406   -41268.751    564.60699 
   31100    297.27077    207.97224    123106.19   -37659.129     3628.611    -41287.74     565.9857 
   31150    295.58717   -164.10485    123146.72   -37629.017    3608.0603   -41237.077    566.40748 
   31200    300.21949   -155.41328    123080.05   -37642.876    3664.6043   -41307.481    567.79473 
   31250    296.73585    24.381191    123067.16   -37612.519    3622.0815   -41234.601    568.83764 
   31300    305.13024    16.322019    123125.69   -37554.295     3724.547   -41278.842    569.97159 
   31350    301.09735    73.619492    123107.44   -37588.066    3675.3199   -41263.386    570.64258 
   31400    295.99577     -180.324    122939.59   -37634.999    3613.0479   -41248.047    571.63985 
   31450    299.86314   -6.0902564    122876.92    -37638.19    3660.2545   -41298.445    572.25316 
   31500    299.32092   -83.880289    122856.38    -37599.59     3653.636   -41253.226    573.61941 
   31550    296.71005   -1.0791989     122726.9     -37628.9    3621.7667   -41250.666    573.80458 
   31600    296.86458   -160.91099    122658.66   -37620.933    3623.6529   -41244.586    574.27624 
   31650    301.22628   -26.240554    122603.31    -37655.52    3676.8936   -41332.414    575.00733 
   31700    296.52737     304.6689    122843.55   -37603.023    3619.5368    -41222.56    577.36932 
   31750    296.15758     261.7557    123019.35     -37539.5     3615.023   -41154.523    579.11593 
   31800    294.58457    -78.12552    122875.64   -37588.041    3595.8221   -41183.863    579.69945 
   31850    294.13104    31.867808    122791.58    -37651.72    3590.2861   -41242.006    579.93569 
   31900    300.84553   -120.22504    122615.17   -37654.249     3672.246   -41326.495    579.57297 
   31950    297.21619     68.43192    122731.33   -37667.707    3627.9448   -41295.652    580.52948 
   32000    297.13006   -71.394361    122574.59   -37644.807    3626.8934     -41271.7    580.83653 
   32050    296.58645     145.8128    122605.13   -37634.961    3620.2579   -41255.219    581.56442 
   32100    296.78917    75.705691    122661.92   -37682.917    3622.7324   -41305.649    582.33245 
   32150    302.51481   -185.94478    122653.85   -37689.923    3692.6219   -41382.545    582.99049 
   32200    292.15695    205.62412    122876.06   -37772.531    3566.1896    -41338.72    584.30928 
   32250    298.87308   -105.56192    122992.97   -37771.381    3648.1695   -41419.551    585.98659 
   32300    299.51201   -50.330167    122952.52    -37726.89    3655.9685   -41382.858    587.03807 
   32350    293.89984    105.18268    123180.78   -37748.002    3587.4641   -41335.466    588.26432 
   32400    292.11968   -186.64016    123052.68   -37753.779    3565.7347   -41319.514    589.03185 
   32450    294.60792     133.1281    122863.21   -37725.118    3596.1071   -41321.225    589.15409 
   32500     296.9888    85.036583     122923.3   -37665.876    3625.1691   -41291.045     590.1672 
   32550    300.59644   -108.13429    122822.17    -37672.61    3669.2055   -41341.816     591.1048 
   32600    303.24483   -80.182834     122825.7   -37621.375    3701.5328   -41322.907    591.56067 
   32650    297.54046    33.164737    122800.04    -37637.46     3631.903   -41269.363    591.95945 
   32700    291.86003   -60.930488    122942.41   -37699.121    3562.5653   -41261.686    593.51072 
   32750    299.02824    182.00174    123137.84    -37641.73    3650.0635   -41291.793    594.91732 
   32800    300.48857    -27.82846    123268.35   -37564.873    3667.8888   -41232.762    596.03049 
   32850    301.71072   -117.92367    123090.78   -37574.952    3682.8069   -41257.759    595.39125 
   32900    293.23543    239.52545    123162.55   -37621.598    3579.3539   -41200.952    596.25716 
   32950    299.94824   -17.178933    123315.01   -37585.598    3661.2934   -41246.892    597.47933 
   33000    297.54723   -131.31631    123334.06   -37582.342    3631.9856   -41214.328    598.56183 
   33050    302.61002   -13.677377     123189.2   -37616.612    3693.7841   -41310.396    598.93817 
   33100    297.62813    34.493984    123174.31   -37591.798    3632.9732   -41224.771    599.71896 
   33150    299.22419   -16.588476    123119.93   -37575.337    3652.4553   -41227.793     599.8122 
   33200    297.62147   -178.66602     122985.5   -37612.696    3632.8918   -41245.588     599.8758 
   33250     297.2375    157.81071    122899.37   -37619.654    3628.2049   -41247.859    600.34666 
   33300     295.8605    206.80929    123097.86   -37589.997    3611.3967   -41201.393    602.07545 
   33350    293.50549   -130.73166    123108.11   -37620.054    3582.6505   -41202.704     602.7816 
   33400    299.18047   -72.859143    122925.84   -37626.448    3651.9216   -41278.369    603.26443 
   33450    291.94521   -135.50686    122669.36   -37667.897     3563.605   -41231.502    602.81837 
   33500     296.0381   -60.293636    122482.43   -37686.198    3613.5645   -41299.762    603.03107 
   33550    301.39909    256.32348     122630.8   -37655.573    3679.0031   -41334.576    605.41464 
   33600    297.04095   -48.912533    122621.72   -37673.259    3625.8058   -41299.064     606.3471 
   33650    296.45918    289.92029    122667.29   -37639.433    3618.7044   -41258.137    607.71021 
   33700    298.01483    143.76054    122906.05   -37628.112    3637.6934   -41265.805    609.32027 
   33750    303.43266      74.5455    123122.08   -37511.888    3703.8256   -41215.714    610.79957 
   33800    301.29149    233.41488    123366.88   -37485.039    3677.6896   -41162.729    612.67464 
   33850    304.31928     53.97967    123206.37   -37502.645     3714.648   -41217.293    614.05502 
   33900     303.7342    18.015283     123076.8   -37472.852    3707.5064   -41180.358    615.45652 
   33950    300.18593   -99.100005    123073.16   -37545.862    3664.1947   -41210.056     616.3592 
   34000    294.14318   -271.82511    122750.68   -37621.825    3590.4344    -41212.26     616.6772 
   34050     301.3629   -159.86763    122685.53   -37598.635    3678.5612   -41277.196    617.59962 
   34100    295.78467    55.758007    122520.29   -37611.554     3610.471   -41222.025    618.05685 
   34150    299.46873   -43.475125    122433.87   -37663.614    3655.4402   -41319.054    619.03247 
   34200    297.06471   -70.772915    122556.36    -37647.55    3626.0958   -41273.646    620.41916 
   34250     293.6701    8.0793101    122761.14   -37640.897    3584.6598   -41225.557    621.53873 
   34300    293.34142   -182.75695    122777.59   -37691.354    3580.6478   -41272.002    623.29587 
   34350    297.79347     110.8254    122749.87   -37689.916    3634.9913   -41324.907    624.34466 
   34400    297.12181    100.26494     122736.4   -37686.838    3626.7927    -41313.63    625.04999 
   34450    298.56397   -204.40796    122652.06   -37672.139    3644.3964   -41316.535    625.66497 
   34500     303.2571     -112.995    122598.33   -37583.972    3701.6826   -41285.655    625.86417 
   34550    303.89785   -35.213396    122578.23   -37501.772    3709.5039   -41211.276    626.92522 
   34600    298.99356    -90.38674    122633.11   -37544.272    3649.6402   -41193.912    628.02059 
   34650    305.32207   -182.69592    122550.95   -37582.395    3726.8886   -41309.284    628.47543 
   34700    297.29112    254.26986    122684.24   -37633.838    3628.8594   -41262.698    629.66679 
   34750    294.12243    78.219477    122829.94   -37694.664     3590.181   -41284.845    631.90426 
   34800    298.03186    38.802721    122793.06   -37683.387    3637.9012   -41321.288    633.58256 
   34850    292.85417   -259.09782    122798.98   -37646.958    3574.7002   -41221.658    635.10445 
   34900    302.51592   -177.56145    122795.21   -37628.666    3692.6355   -41321.301    635.65707 
   34950    295.74569    216.50372    122794.18   -37650.058    3609.9952   -41260.053    635.84125 
   35000    299.74815   -64.763228    122958.98   -37653.612    3658.8509   -41312.463      636.115 
   35050    298.51768    106.02033    122858.02   -37603.312    3643.8313   -41247.143    636.89654 
   35100    299.41876    -206.9451    122709.17   -37607.417    3654.8303   -41262.247    637.07598 
   35150    296.90144   -27.559424    122621.82   -37617.509    3624.1029   -41241.611    637.32123 
   35200     300.7736    177.41154    122670.92   -37549.217    3671.3681   -41220.586    637.63601 
   35250    299.13779   -44.995148     122743.2   -37566.353    3651.4006   -41217.753    638.26995 
   35300      295.967    129.94209    122678.63   -37574.716    3612.6966   -41187.413     638.5751 
   35350     302.5944    -88.53442    122742.54   -37594.414    3693.5935   -41288.007    638.74896 
   35400    297.03394   -139.42243    122792.42   -37612.912    3625.7201   -41238.632    639.96556 
   35450    305.70273   -85.569303    122772.95   -37612.371    3731.5351   -41343.906    640.93159 
   35500    301.08632    -79.12185     122602.8   -37644.461    3675.1853   -41319.647    641.73364 
   35550    299.28129    -12.36074    122614.67   -37606.048    3653.1523     -41259.2    643.02819 
   35600    296.08912    104.19507    122680.49   -37615.909    3614.1873   -41230.096    644.60585 
   35650    290.29617    124.25395    122790.87   -37612.974    3543.4761    -41156.45    645.83362 
   35700    299.59468    199.38264    122876.59   -37569.223    3656.9777   -41226.201    647.43329 
   35750     301.9008    168.76736    122874.04   -37500.292    3685.1271   -41185.419    648.44369 
   35800    302.84577    228.94603    122947.47   -37434.451    3696.6618   -41131.113    649.96384 
   35850    305.77787   -23.501605    122992.76   -37459.282    3732.4522   -41191.734    651.27213 
   35900    298.93483     78.14904    122988.22   -37511.761    3648.9232   -41160.685    652.17092 
   35950    300.91261   -105.24862    123025.69    -37577.36    3673.0649   -41250.425    653.35032 
   36000    298.22273    12.100509    123041.04   -37605.437    3640.2311   -41245.668    654.31961 
   36050    300.47898   -186.60846     122942.4   -37612.693    3667.7717   -41280.465    655.23369 
   36100    292.19533    130.26182    122846.37   -37643.042    3566.6581     -41209.7    656.05313 
   36150    299.33843     97.06031    122795.21   -37655.857    3653.8498   -41309.707    656.17515 
   36200    293.78875    31.753177    122917.67   -37631.683     3586.108   -41217.791    657.41206 
   36250     296.2106     34.73148    122889.84   -37724.269    3615.6701   -41339.939    658.13309 
   36300    297.80616   -113.80352    122746.76   -37643.421    3635.1462   -41278.567    657.58286 
   36350    297.20324    153.80616    122608.54    -37671.86    3627.7867   -41299.646     657.4681 
   36400    295.83655   -49.452422    122753.81   -37680.619    3611.1043   -41291.723    659.16698 
   36450    295.72655    160.58043    122795.28   -37719.538    3609.7617     -41329.3    660.21988 
   36500    294.09864   -61.949477    122956.11   -37687.325    3589.8907   -41277.216    661.45738 
   36550    297.01577   -135.39634    122874.22   -37650.796    3625.4983   -41276.294    661.50552 
   36600    298.78181    34.116393    122695.05   -37637.199    3647.0554   -41284.255    661.89781 
   36650    302.15558   -149.40331    122558.37   -37673.622     3688.237   -41361.859     661.5146 
   36700     296.9685   -86.770699    122468.21   -37727.714    3624.9214   -41352.635    661.96679 
   36750    294.86321    243.25585    122737.97   -37763.955    3599.2234   -41363.178    663.71696 
   36800    292.62915   -106.74201    122754.91   -37801.655    3571.9535   -41373.609    664.67191 
   36850    288.73967    144.11208    122769.34   -37781.171    3524.4768   -41305.648    665.75749 
   36900    297.59546   -106.08073    122775.97   -37744.526    3632.5743   -41377.101    667.10245 
   36950    291.48034    100.25349    122714.64   -37734.614    3557.9307   -41292.545    667.71277 
   37000    296.14627    138.44868     122767.7   -37691.601    3614.8849   -41306.486    668.78356 
   37050     296.1896    49.774676    122813.01   -37738.957    3615.4138   -41354.371    670.23674 
   37100    295.69774    334.73405    122974.08    -37733.41      3609.41    -41342.82     671.7973 
   37150    295.04017    130.57907    123170.12   -37723.403    3601.3834   -41324.786    673.30669 
   37200    295.32453   -75.622617    123095.47   -37737.166    3604.8544    -41342.02    673.89567 
   37250    291.13442    -2.056549    122926.03   -37738.486    3553.7081   -41292.195    674.58874 
   37300    292.07866   -79.862274    123045.67   -37724.712     3565.234   -41289.946     675.7564 
   37350    299.98311   -235.26584     122884.3   -37677.915     3661.719   -41339.634    676.17186 
   37400    291.11288   -48.490214     122695.3   -37749.115    3553.4452    -41302.56    677.42474 
   37450    295.59203   -35.309795    122812.99   -37698.736    3608.1197   -41306.856    679.05052 
[...]
  990800    299.14705    281.65701    122487.14   -37624.693    3651.5137   -41276.207    18841.888 
  990850    301.84735    177.53498     122445.3    -37644.43    3684.4747   -41328.905    18838.246 
  990900    300.20871    257.34168    122462.26   -37658.191    3664.4727   -41322.663    18841.118 
  990950    296.58375    -357.2378     122497.3   -37684.756    3620.2249   -41304.981    18843.577 
  991000    294.13092    120.82411    122507.64   -37642.997    3590.2848   -41233.282    18849.008 
  991050    301.09035    323.62786    122527.39   -37639.698    3675.2344   -41314.932    18850.891 
  991100    290.57122    293.98616    122588.22   -37634.205    3546.8335   -41181.038      18857.5 
  991150     300.3341     308.5839    122703.18   -37635.022    3666.0033   -41301.025    18873.787 
  991200    299.51923    -346.9572    122858.95   -37636.719    3656.0566   -41292.776    18893.592 
  991250    295.88024   -219.47761    122981.14   -37642.348    3611.6376   -41253.986    18905.018 
  991300    298.47668   -343.35944    123074.54   -37628.249    3643.3309    -41271.58    18911.356 
  991350    288.68828    113.93071    123131.18   -37620.098    3523.8495   -41143.948    18918.439 
  991400    296.31095   -277.23615    123155.13   -37627.766     3616.895   -41244.661    18918.403 
  991450    295.01457   -378.42308    123123.21   -37602.715    3601.0709   -41203.786    18919.091 
  991500    289.96185   -10.450083    123037.91   -37617.302    3539.3952   -41156.698    18907.212 
  991550     302.9028   -52.146354    122934.12   -37595.555    3697.3579   -41292.912    18893.827 
  991600     304.0736    -25.03586    122835.15   -37612.983    3711.6492   -41324.632    18888.129 
  991650    300.49204     349.7341    122748.85   -37622.321    3667.9311   -41290.252    18878.603 
  991700    303.20394    229.37076       122712   -37644.958    3701.0338   -41345.991    18872.784 
  991750    301.07396    204.41806    122727.68   -37644.061    3675.0343   -41319.096    18875.015 
  991800    304.21481    364.36939     122791.5   -37640.642    3713.3729   -41354.015    18880.067 
  991850    300.08371   -109.96905    122888.16   -37658.741     3662.947   -41321.688    18890.063 
  991900    300.46753    56.869425    122993.75   -37657.133     3667.632   -41324.765    18899.972 
  991950    297.00155   -84.165564    123102.32   -37664.223    3625.3248   -41289.548    18907.516 
  992000    291.30635   -525.57307    123186.78   -37689.568    3555.8068   -41245.375    18916.722 
  992050    297.49723   -27.757634    123202.16   -37668.961    3631.3753   -41300.336    18918.382 
  992100    296.68643   -38.379443    123180.12   -37679.867    3621.4783   -41301.345    18918.734 
  992150    299.38738    -164.8205    123140.31   -37670.902    3654.4473   -41325.349    18916.409 
  992200    290.87618   -120.28518    123065.93   -37673.084     3550.556    -41223.64    18907.101 
  992250    300.62585    34.922799    122943.37   -37680.375    3669.5646   -41349.939    18895.282 
  992300    295.94673    444.37748    122831.38    -37679.03    3612.4492   -41291.479    18883.944 
  992350    297.19244     293.2823    122759.72   -37665.279    3627.6549   -41292.934     18879.44 
  992400    295.77057    97.728988    122713.97   -37690.877    3610.2989   -41301.176    18877.225 
  992450    295.69678   -124.66116     122674.3   -37696.965    3609.3983   -41306.363    18871.006 
  992500     296.7683    53.844149    122629.42   -37716.742    3622.4776   -41339.219    18870.238 
  992550    301.22649   -60.540526     122597.9   -37713.824    3676.8962    -41390.72    18869.277 
  992600    296.40156    386.77495    122594.96   -37738.815    3618.0011   -41356.816    18868.655 
  992650    294.65568   -2.1639224    122640.52   -37754.228    3596.6901   -41350.918    18876.575 
  992700     294.9563    91.482259    122693.22   -37760.483    3600.3596   -41360.843    18880.398 
  992750    296.08073    126.66345    122759.53   -37730.755    3614.0849    -41344.84    18889.193 
  992800    292.38705    17.229788    122840.32   -37728.463    3568.9983   -41297.461    18897.644 
  992850    295.82088    51.309909     122933.8   -37728.502     3610.913   -41339.415     18905.12 
  992900    296.35067   -197.18526    123035.04   -37733.636    3617.3799   -41351.015    18917.347 
  992950    292.29805   -135.19618    123104.09    -37705.43    3567.9119   -41273.342     18925.29 
  993000    296.45384   -335.55566    123148.91    -37692.42    3618.6392   -41311.059    18928.488 
  993050    290.29205   -255.06986     123156.4   -37711.153    3543.4259   -41254.579    18929.687 
  993100    294.67885   -115.66653    123119.01   -37695.248     3596.973   -41292.221    18924.448 
  993150    298.06466   -127.66288    123057.03    -37674.52    3638.3016   -41312.821    18920.366 
  993200    298.01526   -331.02901    122982.32   -37682.804    3637.6986   -41320.503    18914.683 
  993250    297.47919     117.3042    122875.58   -37671.802     3631.155   -41302.957    18904.542 
  993300    298.39727    219.84837    122759.58    -37654.96    3642.3615   -41297.321    18894.202 
  993350    294.31896    166.65247    122668.42   -37658.625      3592.58   -41251.205    18884.637 
  993400     296.6712    408.86939     122613.2   -37658.653    3621.2925   -41279.946    18878.098 
  993450    297.60306    212.86956    122638.02   -37650.037    3632.6671   -41282.705    18882.346 
  993500     296.2324   -181.33547    122706.02   -37639.378    3615.9363   -41255.314    18892.249 
  993550    294.79737   -97.552627    122752.36   -37627.058    3598.4196   -41225.477    18897.377 
  993600     296.2838   -135.84826    122786.07    -37614.32    3616.5636   -41230.883    18902.548 
  993650    303.47084    65.842645    122819.56   -37592.362    3704.2917   -41296.654    18905.118 
  993700    300.05581    -55.85691    122858.88   -37617.283    3662.6064    -41279.89    18905.382 
  993750    293.26036   -37.939931    122889.81   -37624.118    3579.6583   -41203.777    18908.577 
  993800    299.48746   -307.23665    122913.47   -37629.969    3655.6689   -41285.637    18912.412 
  993850    295.95895   -285.38062    122908.36   -37624.515    3612.5984   -41237.114    18908.367 
  993900    299.36135   -352.52607    122865.37   -37627.345    3654.1296   -41281.474    18902.543 
  993950    304.55497   -25.578517    122789.12   -37622.613     3717.525   -41340.138    18894.001 
  994000    299.57839   -264.71866    122700.54   -37645.472    3656.7788   -41302.251    18880.528 
  994050    297.09055    529.72462    122592.07   -37652.778    3626.4112   -41279.189    18869.066 
  994100     296.0311    254.53205    122514.31    -37673.86    3613.4791   -41287.339    18864.121 
  994150    298.47742    156.20263     122464.5   -37690.829    3643.3399   -41334.169    18852.811 
  994200    294.13427     336.0688    122431.25   -37703.717    3590.3256   -41294.042     18850.31 
  994250    293.07754   -152.74605    122433.99   -37713.905    3577.4267   -41291.331    18851.612 
  994300    300.35458   -80.137704    122430.15   -37709.511    3666.2533   -41375.764    18851.485 
  994350    293.19659    24.532453    122424.61   -37734.528    3578.8798   -41313.407    18848.985 
  994400    298.41885    39.044926       122431   -37723.913     3642.625   -41366.538    18851.096 
  994450    296.60442    99.128908    122462.18   -37740.047    3620.4773   -41360.524    18860.869 
  994500    291.82182    38.552854    122525.74   -37725.634    3562.0989   -41287.733    18869.292 
  994550    290.81351    116.65246    122599.97   -37734.185     3549.791   -41283.976    18877.466 
  994600    294.14373   -69.811851    122672.66   -37711.842     3590.441   -41302.283    18887.308 
  994650    301.67224   -23.123288    122730.09   -37692.255    3682.3372   -41374.593    18896.176 
  994700    296.81513     241.7072    122780.51   -37730.175    3623.0493   -41353.224    18907.457 
  994750    294.93816   -173.09727    122855.72   -37755.788    3600.1383   -41355.926    18917.239 
  994800    296.10626   -81.106543    122931.72   -37751.572    3614.3965   -41365.969     18925.45 
  994850    291.79031    50.074474     123001.5   -37720.934    3561.7142   -41282.649    18935.951 
  994900    291.52363   -343.77997    123070.92   -37736.471    3558.4591    -41294.93    18937.481 
  994950    293.70894   -303.81555     123090.1   -37728.886    3585.1339    -41314.02    18938.142 
  995000    298.88396   -255.82352     123054.4   -37714.917    3648.3023   -41363.219    18936.095 
  995050    299.36214   -131.76551    122972.68    -37673.15    3654.1392   -41327.289    18930.114 
  995100    296.78508    50.751123    122870.03   -37678.583    3622.6825   -41301.265    18919.388 
  995150     292.9444   -58.404363    122767.04   -37694.088    3575.8016   -41269.889    18913.377 
  995200    295.91525   -64.965868    122658.93   -37723.483     3612.065   -41335.548    18902.336 
  995250     292.4334    114.86032    122537.64   -37719.219     3569.564   -41288.783    18890.522 
  995300    297.26551    412.09257    122432.24   -37726.451    3628.5468   -41354.998    18879.862 
  995350    292.77996      143.401    122380.56    -37737.66    3573.7943   -41311.455    18870.687 
  995400     290.6058     173.3516    122346.08    -37747.58    3547.2556   -41294.835    18866.398 
  995450    294.63147    136.07676    122336.52   -37751.732    3596.3946   -41348.127     18868.39 
  995500     293.7129    484.52147    122361.56   -37749.189    3585.1821   -41334.372    18877.628 
  995550    294.12906    116.73884    122432.92   -37766.181     3590.262   -41356.443    18881.714 
  995600    297.70923   -58.006712    122553.43   -37760.302     3633.963   -41394.265    18895.056 
  995650    298.46813   -55.688305     122701.2   -37733.261    3643.2265   -41376.488    18907.689 
  995700    293.10384   -127.90151    122852.48   -37730.429    3577.7477   -41308.177    18923.391 
  995750    290.19366   -526.09727    122978.41   -37732.965    3542.2249    -41275.19    18938.179 
  995800    291.09198   -292.55687    123032.58    -37707.86    3553.1901    -41261.05    18943.662 
  995850    292.51025   -330.74522     123010.7   -37712.377    3570.5022   -41282.879    18941.194 
  995900    293.51402   -159.87689    122918.85   -37699.516    3582.7546    -41282.27     18936.66 
  995950    298.87459   -197.23052    122786.94   -37713.449    3648.1879   -41361.637    18924.237 
  996000    296.17592    234.45065    122631.43    -37716.49    3615.2468   -41331.737    18907.162 
  996050    299.02386     407.2761    122490.61   -37686.182      3650.01   -41336.192    18894.953 
  996100    293.58692    218.06583    122389.46   -37693.827    3583.6444   -41277.472    18891.893 
  996150    296.74189   -19.335918    122308.18    -37679.15    3622.1553   -41301.305     18885.23 
  996200    293.69248     257.4823    122228.38   -37669.691    3584.9329   -41254.624    18878.477 
  996250    302.01476    224.62241    122179.98   -37672.971    3686.5181   -41359.489     18874.12 
  996300    299.28274    161.82038    122166.11   -37659.646    3653.1699   -41312.816    18872.192 
  996350    300.70696    152.86474    122177.52   -37630.485    3670.5547    -41301.04    18871.108 
  996400    297.89198    114.14189    122199.71   -37614.641    3636.1937   -41250.835    18875.168 
  996450     302.0788    234.83989    122240.94   -37607.371    3687.2999   -41294.671     18882.81 
  996500    297.14242    108.49607    122315.24   -37613.902    3627.0444   -41240.946    18892.877 
  996550     296.3443    348.01582    122414.77   -37585.363    3617.3021   -41202.665    18901.033 
  996600    299.41079    393.12294     122566.2   -37624.534     3654.733   -41279.267    18918.607 
  996650    297.47756    117.62894    122765.62   -37623.264    3631.1352     -41254.4    18934.565 
  996700     298.1673   -85.639171    122983.85   -37623.504    3639.5544   -41263.058     18957.44 
  996750    293.54029    39.877315    123196.56    -37613.55    3583.0752   -41196.625    18979.151 
  996800    296.80736   -361.63947    123408.79   -37609.617    3622.9544   -41232.572    19002.625 
  996850    296.91124   -444.34665    123580.36   -37611.524    3624.2224   -41235.746    19017.905 
  996900    302.71963   -431.54651    123690.73    -37607.66    3695.1221   -41302.782    19029.403 
  996950    298.35657   -241.08494    123759.55   -37618.072    3641.8648   -41259.937    19038.353 
  997000    299.98016   -311.32063    123796.81   -37612.417     3661.683     -41274.1    19044.164 
  997050    293.05775    -163.3876    123786.22   -37594.925    3577.1851    -41172.11    19044.025 
  997100    296.59949   -618.96755    123709.04   -37623.737    3620.4171   -41244.155    19033.542 
  997150    300.30939   -490.30214    123537.31   -37597.323    3665.7017   -41263.025    19018.177 
  997200    295.10052   -137.62338    123288.19   -37620.751      3602.12   -41222.871    18993.806 
  997250    297.23427    235.79641    123008.15   -37603.692    3628.1655   -41231.858    18959.356 
  997300    295.87784    183.69399       122748   -37631.734    3611.6083   -41243.343    18930.327 
  997350    298.45544    147.12457    122516.27   -37636.365    3643.0716   -41279.437    18906.777 
  997400     297.7231    561.21963    122319.55   -37633.625    3634.1323   -41267.758    18886.422 
  997450    294.02374    344.11928    122200.04   -37652.904    3588.9764    -41241.88    18873.699 
  997500    298.81293    280.86029    122128.04   -37654.349    3647.4353   -41301.785    18864.185 
  997550    295.66155    49.072353    122085.07   -37650.494    3608.9683   -41259.462    18864.242 
  997600    299.02666    111.54693    122045.94   -37682.762    3650.0441   -41332.806    18863.049 
  997650    294.47306    311.56702    122016.87   -37716.281     3594.461   -41310.742    18864.851 
  997700    298.08081    128.73108    122007.57   -37704.083    3638.4987   -41342.581    18866.686 
  997750    300.64773    372.01027    122033.85   -37708.961    3669.8316   -41378.793    18872.481 
  997800    295.05155    381.14482    122130.79   -37710.754    3601.5223   -41312.276    18883.703 
  997850    296.73369    378.33371    122278.51   -37715.339    3622.0552   -41337.395    18897.988 
  997900    289.70498   -42.333962     122445.6   -37732.488    3536.2598   -41268.748    18917.078 
  997950    294.55421   -253.59602    122607.62   -37713.356    3595.4516   -41308.808    18933.014 
  998000    293.93279    35.448089    122760.32   -37712.141    3587.8662   -41300.007    18952.627 
  998050     292.3824   -121.29417    122902.57   -37714.913    3568.9416   -41283.855    18967.801 
  998100    296.26119   -174.43886    123021.27   -37703.177    3616.2877   -41319.465    18982.536 
  998150    298.96927   -1.3474085    123120.06   -37676.211    3649.3436   -41325.555    18988.664 
  998200    297.00344   -2.7004205    123208.08   -37652.797    3625.3479   -41278.145    18997.144 
  998250    295.51871   -206.08361    123295.79   -37660.262    3607.2246   -41267.486    19005.804 
  998300    297.02544   -376.83956    123367.53   -37659.348    3625.6164   -41284.964    19014.448 
  998350    293.87369   -572.70073    123385.93   -37664.496    3587.1448   -41251.641    19013.767 
  998400    295.89985   -526.88308    123322.54   -37670.026     3611.877   -41281.903     19007.21 
  998450     295.9232   -38.323817    123207.84   -37691.759     3612.162   -41303.921    18996.407 
  998500    300.32274   -259.91305    123085.31     -37725.4    3665.8647   -41391.264    18978.751 
  998550    290.43632    337.76988    122972.43   -37719.755    3545.1869   -41264.942    18964.876 
  998600    297.77545    186.93217    122894.45   -37694.872    3634.7714   -41329.643    18957.856 
  998650    294.51778    72.956923    122822.16    -37699.89    3595.0069   -41294.897     18954.23 
  998700     291.5577    167.21884    122741.48   -37690.014    3558.8749   -41248.889    18945.433 
  998750    299.02193    220.20262    122677.87   -37656.959    3649.9864   -41306.945    18939.132 
  998800    299.31427    99.785027    122646.16   -37667.657    3653.5548   -41321.212    18935.059 
  998850     295.2476   -289.87226    122630.16   -37693.389    3603.9153   -41297.305    18934.676 
  998900    294.35166    -314.8162    122568.08    -37693.82    3592.9792     -41286.8    18924.722 
  998950    295.70463    232.36808    122463.71   -37671.121     3609.494   -41280.615    18913.575 
  999000    299.06621    426.62131    122373.11   -37654.388    3650.5269   -41304.914    18904.602 
  999050    295.20104    185.59409    122336.52   -37661.387    3603.3471   -41264.734     18901.26 
  999100    299.44047    381.38303    122341.75   -37668.937    3655.0952   -41324.032    18901.266 
  999150    299.25045    195.04713    122406.34   -37680.763    3652.7758   -41333.539    18912.269 
  999200     298.0979    6.9701852    122505.68    -37675.54    3638.7073   -41314.247    18925.785 
  999250    293.66842   -12.322819    122613.66   -37683.929    3584.6392   -41268.568    18936.319 
  999300    299.10158   -72.236423    122717.11   -37690.681    3650.9586   -41341.639    18950.795 
  999350    293.29947   -100.54071    122799.51    -37699.24    3580.1357   -41279.376    18958.771 
  999400    295.04918   -355.47836    122850.47   -37691.296    3601.4933   -41292.789    18965.416 
  999450    296.70943   -241.98571       122868   -37700.298     3621.759   -41322.057    18968.113 
  999500    288.35506    109.26781    122854.58   -37734.155    3519.7822   -41253.937      18967.9 
  999550    296.04299   -270.99851    122831.25   -37742.365    3613.6243   -41355.989    18967.049 
  999600    294.97171    59.118279    122781.71   -37765.595    3600.5477   -41366.143    18957.202 
  999650    300.25675   -16.549609    122724.01    -37748.26    3665.0591   -41413.319    18953.514 
  999700    294.80025    -0.328042    122667.12    -37742.12    3598.4549   -41340.574    18953.136 
  999750    293.74328     392.4626    122626.14   -37741.811     3585.553   -41327.364    18949.376 
  999800     293.5905    101.81254    122628.87   -37731.651    3583.6882   -41315.339    18946.893 
  999850    293.09393   -260.94689    122646.66   -37744.619    3577.6268   -41322.246    18946.005 
  999900    292.90872   -115.60598     122650.1   -37726.348     3575.366   -41301.714    18946.224 
  999950    295.10151    4.5631091    122618.26   -37759.236    3602.1321   -41361.369    18942.086 
 1000000    294.82643   -304.36118    122561.49   -37768.861    3598.7744   -41367.635    18933.441 
Loop time of 2361.95 on 12 procs for 1000000 steps with 4096 atoms

Performance: 182.900 ns/day, 0.131 hours/ns, 423.379 timesteps/s
96.4% CPU use with 12 MPI tasks x no OpenMP threads

MPI task timing breakdown:
Section |  min time  |  avg time  |  max time  |%varavg| %total
---------------------------------------------------------------
Pair    | 1629.3     | 1645.7     | 1663.5     |  29.0 | 69.68
Neigh   | 50.8       | 51.627     | 52.395     |   6.1 |  2.19
Comm    | 510.33     | 528.78     | 545.1      |  51.1 | 22.39
Output  | 1.673      | 1.7967     | 2.94       |  25.7 |  0.08
Modify  | 118.95     | 121.26     | 122.88     |   8.8 |  5.13
Other   |            | 12.79      |            |       |  0.54

Nlocal:    341.333 ave 347 max 336 min
Histogram: 2 1 0 3 0 0 3 1 1 1
Nghost:    1028.5 ave 1044 max 1017 min
Histogram: 1 4 1 0 1 0 3 1 0 1
Neighs:    0 ave 0 max 0 min
Histogram: 12 0 0 0 0 0 0 0 0 0
FullNghs:  11458.7 ave 11664 max 11339 min
Histogram: 2 2 1 3 0 0 2 1 0 1

Total # of neighbors = 137504
Ave neighs/atom = 33.5703
Neighbor list builds = 73882
Dangerous builds = 0
#run					100000
write_restart   prod.${NAME}-p1t${TEMP}.rst
write_restart   prod.liquid_long01-p1t${TEMP}.rst
write_restart   prod.liquid_long01-p1t298.rst

Total wall time: 0:47:05
