LAMMPS (12 Dec 2018)
# Simulation of monatomic water
# Real units, atomic atom style (no bonded interactions)

variable        NAME string liquid_box_228K
variable        TEMP string 28
variable        PRES string 1
variable        TCOUPL string 5000.0
variable        PCOUPL string 10000.0

units	   	    real
atom_style 	    atomic
log		        log.${NAME}
log		        log.liquid_box_228K
