
# Create simulation box and atoms
lattice		    sc 1
Lattice spacing in x,y,z = 1 1 1
region 		    all block 0 50 0 50 0 50 units box
create_box 	    1 all
Created orthogonal box = (0 0 0) to (50 50 50)
  1 by 2 by 5 MPI processor grid

create_atoms	1 random 4096 63782 all
Created 4096 atoms
  Time spent = 0.000571489 secs

mass		    1 18.015

# Define potential

pair_style 	    sw
pair_coeff	    * * mW_real.sw mW
Reading potential file mW_real.sw with DATE: 2019-02-27

# Run minimization and output files

minimize 	    1.0e-8 1.0e-8 10000 1000
WARNING: Using 'neigh_modify every 1 delay 0 check yes' setting during minimization (../min.cpp:168)
Neighbor list info ...
  update every 1 steps, delay 0 steps, check yes
  max neighbors/atom: 2000, page size: 100000
  master list distance cutoff = 6.3065
  ghost atom cutoff = 6.3065
  binsize = 3.15325, bins = 16 16 16
  1 neighbor lists, perpetual/occasional/extra = 1 0 0
  (1) pair sw, perpetual
      attributes: full, newton on
      pair build: full/bin/atomonly
      stencil: full/bin/3d
      bin: standard
Per MPI rank memory allocation (min/avg/max) = 4.251 | 4.254 | 4.259 Mbytes
Step Temp E_pair E_mol TotEng Press 
       0            0    4841787.4            0    4841787.4    3675171.9 
     707            0   -46179.874            0   -46179.874   -1079.9502 
Loop time of 2.22485 on 10 procs for 707 steps with 4096 atoms

98.9% CPU use with 10 MPI tasks x no OpenMP threads

Minimization stats:
  Stopping criterion = max force evaluations
  Energy initial, next-to-last, final = 
          4841787.3909     -46179.7452467     -46179.8744078
  Force two-norm initial, final = 1.26053e+08 2.6765
  Force max component initial, final = 6.83465e+07 0.918118
  Final line search alpha, max atom move = 0.0752436 0.0690825
  Iterations, force evaluations = 707 1001

MPI task timing breakdown:
Section |  min time  |  avg time  |  max time  |%varavg| %total
---------------------------------------------------------------
Pair    | 1.5973     | 1.7964     | 2.1322     |  12.5 | 80.74
Neigh   | 0.024464   | 0.029546   | 0.032597   |   1.6 |  1.33
Comm    | 0.031348   | 0.30139    | 0.56015    |  28.8 | 13.55
Output  | 0          | 0          | 0          |   0.0 |  0.00
Modify  | 0          | 0          | 0          |   0.0 |  0.00
Other   |            | 0.09755    |            |       |  4.38

Nlocal:    409.6 ave 420 max 395 min
Histogram: 1 1 1 0 1 0 2 1 0 3
Nghost:    1335.2 ave 1357 max 1313 min
Histogram: 2 1 2 0 0 1 0 0 1 3
Neighs:    0 ave 0 max 0 min
Histogram: 10 0 0 0 0 0 0 0 0 0
FullNghs:  13254 ave 13794 max 12456 min
Histogram: 2 1 0 0 0 1 1 1 2 2

Total # of neighbors = 132540
Ave neighs/atom = 32.3584
Neighbor list builds = 37
Dangerous builds = 0
write_restart	min.${NAME}.rst
write_restart	min.liquid_box_228K.rst
write_data      min.${NAME}.data
write_data      min.liquid_box_228K.data

# Equilibration of molecular water

# Add velocity/set timestep

velocity	    all create ${TEMP} 120598 rot yes dist gaussian
velocity	    all create 28 120598 rot yes dist gaussian
timestep	    5.0

# Define output
compute			1 all msd

thermo	    	50
thermo_style	custom step temp press vol etotal ke pe c_1[4]

# Neighbor lists

neigh_modify    delay 0 every 1 check yes

# Set fixes

fix             1 all momentum 10 linear 1 1 1 rescale
fix             2 all nve
fix             3 all temp/csvr ${TEMP} ${TEMP} 500.0 928347
fix             3 all temp/csvr 28 ${TEMP} 500.0 928347
fix             3 all temp/csvr 28 28 500.0 928347
fix             4 all press/berendsen iso ${PRES} ${PRES} 1000.0 modulus 20000
fix             4 all press/berendsen iso 1 ${PRES} 1000.0 modulus 20000
fix             4 all press/berendsen iso 1 1 1000.0 modulus 20000

# Run 1 ns equilibration

#dump		    1 all xtc 2000 eq.${NAME}-p1t${TEMP}.xtc
dump		    1 all atom 1000 eq.${NAME}-p1t${TEMP}.dump
dump		    1 all atom 1000 eq.liquid_box_228K-p1t${TEMP}.dump
dump		    1 all atom 1000 eq.liquid_box_228K-p1t28.dump

reset_timestep  0

run	            200000
Per MPI rank memory allocation (min/avg/max) = 4.518 | 4.52 | 4.525 Mbytes
Step Temp Press Volume TotEng KinEng PotEng c_1[4] 
       0           28   -954.96196       125000   -45838.095    341.77968   -46179.874            0 
      50    18.099666   -299.48501    124169.44   -45765.822    220.93207   -45986.754   0.02185154 
     100    19.903023   -129.69485    123894.88   -45713.714     242.9446   -45956.659  0.035031955 
     150    22.103329   -95.861042    123765.65   -45672.643    269.80246   -45942.446  0.052302716 
     200     23.96439   -45.298059    123698.86   -45645.393    292.51934   -45937.912  0.075479294 
     250    25.253999   -89.765513    123648.48   -45629.306    308.26085   -45937.567   0.10606387 
     300    27.179434    16.877817    123625.46   -45617.752     331.7635   -45949.516   0.13839384 
     350    27.836988    21.578983    123624.07   -45616.778    339.78989   -45956.568    0.1706797 
     400    27.456964    10.028795    123639.09   -45617.268    335.15116   -45952.419   0.19307087 
     450    28.865556    13.863813    123627.58   -45617.322    352.34501   -45969.667   0.20804162 
     500    28.646085    13.140678    123658.93    -45622.56    349.66607   -45972.226   0.22890061 
     550    29.976605    3.7847628     123652.7   -45621.151    365.90695   -45987.058   0.25439486 
     600      29.6567    -55.51373     123591.1   -45625.187    362.00205   -45987.189    0.2844583 
     650    29.535692   -35.522113    123571.04   -45638.034    360.52498   -45998.559   0.30116989 
     700    30.067506   -24.144029    123518.71   -45649.824    367.01653   -46016.841   0.31555322 
     750    29.825804    79.188925    123577.67   -45662.571     364.0662   -46026.637   0.33483868 
     800    31.223981   -13.947436    123563.92   -45670.032    381.13294   -46051.165   0.34871961 
     850    29.932045    31.206372    123554.09   -45686.043    365.36303   -46051.406   0.37328596 
     900    30.380351    17.706828     123547.8   -45696.197    370.83524   -46067.033   0.39832403 
     950    29.835444   -35.357484    123532.32   -45715.453    364.18388   -46079.637   0.41325971 
    1000    29.396851   -12.385327    123556.32   -45729.621    358.83022   -46088.451   0.42600667 
    1050    29.825846    -68.11202    123510.89    -45741.85    364.06671   -46105.917    0.4430377 
    1100    29.555295    26.939292     123461.9   -45746.713    360.76426   -46107.477   0.45635743 
    1150    29.814361    -34.05452    123434.68   -45761.509    363.92653   -46125.435   0.46504512 
    1200     30.03084    89.457363    123467.38   -45766.893    366.56896   -46133.462   0.47588863 
    1250    29.577206   -75.947739    123450.06   -45776.238    361.03172   -46137.269   0.50223768 
    1300    29.865166      5.35745    123397.34   -45778.859    364.54667   -46143.405   0.52235015 
    1350    29.141324   -13.478176    123397.69   -45797.016    355.71115   -46152.727   0.52756235 
    1400    29.222455    33.887655    123382.61   -45802.827    356.70147   -46159.529   0.54434569 
    1450    28.691149    -9.589684    123410.13   -45819.079    350.21614   -46169.295   0.55137291 
    1500    28.887586    1.9806747    123369.91   -45824.408    352.61392   -46177.022   0.55961294 
    1550    28.825759   -25.645301    123399.03   -45825.737    351.85924   -46177.597   0.57877754 
    1600    28.662736    10.210999     123357.9   -45831.907    349.86931   -46181.776   0.59662365 
    1650    28.966773   -28.761103    123347.44   -45838.466    353.58051   -46192.046   0.61410308 
    1700     29.62255   -20.136284    123314.79   -45850.008    361.58521   -46211.594   0.61649681 
    1750    29.506457   -45.549921    123313.02   -45853.694    360.16813   -46213.862   0.62583889 
    1800    29.156049    38.754255    123258.27   -45861.288     355.8909   -46217.178   0.63438267 
    1850    29.699215   -12.327897    123276.47   -45864.611    362.52101   -46227.132   0.63998004 
    1900    29.030276    22.427428    123274.87   -45865.449    354.35566   -46219.805   0.64045863 
    1950    29.823396    31.682991    123308.85    -45869.68    364.03682   -46233.716   0.64383599 
    2000    29.519172    8.5474202    123291.49    -45874.76    360.32332   -46235.084   0.65682136 
    2050    29.323763     -13.8161    123331.01   -45894.049    357.93809   -46251.987   0.67230446 
    2100    28.838543    -53.17797    123307.54   -45902.666    352.01529   -46254.681   0.68212384 
    2150    28.770015    65.341641    123337.28   -45906.725     351.1788   -46257.904   0.68874327 
    2200    28.788942   -24.394865    123344.95   -45908.683    351.40983   -46260.093   0.70354507 
    2250     28.87095   -50.883869    123305.45   -45911.376    352.41085   -46263.787   0.71657891 
    2300    29.145561   -2.0830869    123299.41    -45913.69    355.76288   -46269.453   0.72325178 
    2350    29.601963    43.920882     123321.2   -45920.655     361.3339   -46281.989   0.72100167 
    2400    28.688709   -39.026308    123310.91   -45927.481    350.18635   -46277.667   0.72663959 
    2450     29.17268   -9.3911805    123310.33   -45931.173     356.0939   -46287.267   0.72770651 
    2500    28.974015    -53.09643    123317.07   -45940.105    353.66891   -46293.774   0.73661831 
    2550    28.583571   -13.092377     123318.4   -45942.935    348.90299   -46291.838   0.74191518 
    2600    28.760003   -50.582257    123289.18   -45952.257     351.0566   -46303.314   0.74591328 
    2650    29.050015   -13.878994    123288.28   -45950.895     354.5966   -46305.492   0.75362181 
    2700    28.580443    10.500863    123303.45   -45959.995    348.86481    -46308.86   0.75556864 
    2750    28.390478    17.482015    123316.58   -45959.298    346.54602   -46305.844   0.75367103 
    2800    28.868191    -31.46736    123297.36    -45957.54    352.37718   -46309.917   0.74739213 
    2850    28.507635    32.286558     123308.9   -45956.406    347.97609   -46304.382   0.74124158 
    2900    28.070618     -48.5088    123270.42   -45962.471    342.64168   -46305.113   0.75057493 
    2950    28.388967    3.9811722    123282.71   -45966.496    346.52757   -46313.024   0.76667064 
    3000    28.543188   -13.902275    123293.22    -45971.75    348.41006    -46320.16   0.76863767 
    3050    28.534524   -35.706642    123303.94   -45972.092     348.3043   -46320.397   0.77674488 
    3100    28.729049   -21.062223    123285.16   -45973.097    350.67876   -46323.775   0.77198712 
    3150    28.001566    6.1321993     123262.1   -45974.665     341.7988   -46316.464   0.77236311 
    3200     28.39432    74.090369    123294.57   -45984.692    346.59291   -46331.285   0.77463109 
    3250     27.87801   -27.225262    123315.73   -45995.061    340.29062   -46335.352   0.77922528 
    3300    27.488399   -8.5109002    123272.32   -45994.811    335.53486   -46330.346   0.78406575 
    3350    28.166043    7.5794137    123267.43   -45991.994    343.80647   -46335.801   0.77843898 
    3400    27.895095    38.574498    123291.46   -45990.017    340.49917   -46330.516   0.77414543 
    3450    28.482841    10.395154    123292.56   -45986.703    347.67344   -46334.376   0.76692239 
    3500    28.641334    6.8247425     123297.3   -45988.937    349.60807   -46338.545   0.77861504 
    3550    28.050005   -10.570837    123308.95   -45988.601    342.39007   -46330.992   0.78464723 
    3600    28.167668   -34.938194    123318.49   -45990.929    343.82631   -46334.756    0.7873478 
    3650    28.032825    4.5116818    123326.11   -45992.564    342.18036   -46334.744   0.79483342 
    3700     28.58831   0.46577269    123304.17   -45989.204    348.96084   -46338.165   0.79792595 
    3750    28.342252   -23.706378    123291.38   -45987.427    345.95735   -46333.384   0.80041753 
    3800    28.254311    25.915444    123310.73   -45989.352    344.88391   -46334.236    0.7956914 
    3850    28.314466    7.7369414    123327.03    -45987.56    345.61819   -46333.178   0.79773377 
    3900    28.280697    31.108273    123337.08   -45991.098    345.20599   -46336.304   0.80372089 
    3950     28.13405    -1.030602    123326.23   -45995.604    343.41595    -46339.02   0.79634112 
    4000    28.118535    30.284366    123354.48   -45998.396    343.22657   -46341.622   0.80846619 
    4050    27.833527    19.123022    123338.78    -46003.34    339.74765   -46343.087   0.81874587 
    4100    28.085934    -15.14837    123369.38   -46000.731    342.82863   -46343.559   0.82655614 
    4150    28.633937   -37.943107    123384.56   -45998.242    349.51777    -46347.76    0.8228831 
    4200    27.846091    3.4346374    123384.54   -45999.874      339.901   -46339.775   0.81008322 
    4250    28.008665   -8.2677482    123377.64    -46006.59    341.88545   -46348.476   0.81178194 
    4300    27.889637    21.398407    123366.66   -46013.775    340.43254   -46354.208   0.81270181 
    4350    28.271938   -17.980783    123396.93   -46003.724    345.09907   -46348.823   0.81818346 
    4400    28.548763    18.690894    123403.94   -46007.147    348.47811   -46355.625   0.81715469 
    4450    28.362532    30.975496    123397.06   -46011.197    346.20489   -46357.402   0.82168236 
    4500    28.077543   -21.794796     123423.1   -46014.093    342.72621   -46356.819   0.82272969 
    4550    27.272644   -3.1771616    123420.82   -46018.251    332.90127   -46351.153   0.82512006 
    4600    27.818462     19.78395    123400.74   -46018.859    339.56375   -46358.422   0.82284853 
    4650    28.157529   -37.631358    123388.29   -46015.457    343.70254    -46359.16   0.83241864 
    4700    28.174959    49.608789    123429.71    -46011.27     343.9153   -46355.185   0.82685323 
    4750     28.55249    13.837652    123395.77   -46005.371     348.5236   -46353.895   0.83160452 
    4800    28.849622    30.272695    123370.43   -46002.702    352.15053   -46354.852   0.83384007 
    4850    28.376579    50.383643     123412.9   -46006.043    346.37636   -46352.419   0.84204759 
    4900    28.444636    27.512935    123423.65   -46001.684    347.20709   -46348.891   0.83996293 
    4950    28.608054   -3.6543657    123409.02   -46004.257    349.20185   -46353.458   0.83914333 
    5000    28.182775   -37.346861    123437.11   -46014.549    344.01071    -46358.56    0.8453377 
    5050    28.175443     2.893656    123399.62   -46011.114    343.92121   -46355.035   0.84005319 
    5100     28.44025    23.501431    123435.68   -46008.559    347.15356   -46355.713   0.84246579 
    5150    28.481925   -11.623185    123447.14   -46005.076    347.66226   -46352.738   0.85437692 
    5200    28.404231     5.000362    123428.91   -46015.501     346.7139   -46362.215   0.85425455 
    5250    27.807911   -68.920382     123431.5   -46024.816    339.43496   -46364.251   0.84641267 
    5300    27.802464    17.961725    123398.83   -46025.808    339.36847   -46365.177   0.85016393 
    5350    27.769166  -0.46153217    123389.27   -46031.532    338.96202   -46370.494   0.86324873 
    5400    28.258553   -9.3702794    123363.48   -46027.866    344.93568   -46372.802   0.88116778 
    5450    28.106214   -4.8847183    123334.19   -46028.804    343.07617    -46371.88       0.8762 
    5500    28.328386    4.9912917    123360.86   -46029.198    345.78809   -46374.986   0.87618509 
    5550    27.518697   -15.644418    123355.16   -46039.114    335.90469   -46375.019   0.88370708 
    5600    27.854976    31.388857     123343.8   -46036.131    340.00945   -46376.141   0.88688458 
    5650    28.421377    2.1054136    123348.68   -46036.931    346.92318   -46383.855   0.88381721 
    5700    27.619701   -10.478052    123315.38   -46038.707     337.1376   -46375.844   0.88687349 
    5750    28.307877    11.440038    123322.38   -46039.689    345.53776   -46385.227   0.88643293 
    5800    27.891168   -1.6748286    123293.24   -46036.662    340.45123   -46377.113    0.8906295 
    5850    28.161729   -23.264853    123286.94   -46044.383    343.75381   -46388.137   0.89104574 
    5900    27.748511     4.023113    123288.53   -46046.472     338.7099   -46385.182   0.89244406 
    5950    27.710309    21.919659    123261.98    -46049.39    338.24359   -46387.634   0.89857431 
    6000    27.998857   -12.735957    123290.01   -46046.461    341.76573   -46388.227   0.90896709 
    6050    27.774264     21.67217    123254.57   -46055.592    339.02426   -46394.616   0.90799018 
    6100    27.345821   -16.898887    123254.12   -46055.739    333.79449   -46389.533   0.90283964 
    6150    27.959869   -10.523062    123246.61   -46056.658    341.28982   -46397.948   0.91071502 
    6200    27.995164    26.745948    123215.71   -46055.684    341.72065   -46397.404   0.90776774 
    6250    28.290108    29.634998    123264.42   -46048.891    345.32086   -46394.212   0.90635048 
    6300    28.056535   -25.075024     123260.1   -46046.952    342.46977   -46389.422   0.90343257 
    6350    27.937111   -12.833053    123227.15   -46051.664    341.01204   -46392.676   0.90968085 
    6400    28.379213    16.139006    123253.63   -46054.576    346.40851   -46400.984   0.91419001 
    6450    28.055218    13.230859    123243.56    -46059.92     342.4537   -46402.374   0.91063143 
    6500    28.108132    12.487883    123302.61   -46058.782    343.09959   -46401.881   0.90878219 
    6550      27.6074   -57.032813    123287.18   -46065.333    336.98744    -46402.32   0.91759866 
    6600    28.327643    47.200748    123299.63   -46060.784    345.77903   -46406.563   0.92052532 
    6650    27.253094    37.783375    123306.98    -46062.74    332.66264   -46395.403   0.92405537 
    6700    27.848803    11.579951    123364.26   -46066.971    339.93411   -46406.905   0.92240764 
    6750    28.135979   -42.325633     123335.5   -46067.102     343.4395   -46410.541   0.92180459 
    6800    27.742145    18.070143    123325.37   -46064.566    338.63219   -46403.198   0.92316268 
    6850    28.158071   -2.4241188    123296.46   -46061.475    343.70916   -46405.184   0.93508756 
    6900    28.474309   -7.2268166    123269.49    -46060.52    347.56929   -46408.089   0.93302493 
    6950    27.945434   -52.326622     123249.3   -46065.743    341.11363   -46406.857   0.91692337 
    7000    28.314318    4.6228276    123243.25   -46063.145    345.61638   -46408.762   0.91736457 
    7050    28.328226    5.5170584     123254.6   -46068.021    345.78614   -46413.807   0.92503498 
    7100    28.286202   -5.8920922    123282.53   -46067.245    345.27318   -46412.518   0.93866858 
    7150    28.142152    21.627737    123296.44   -46072.047    343.51485   -46415.561   0.95866743 
    7200    27.728886     29.79899    123308.35   -46079.197    338.47035   -46417.668   0.97223414 
    7250    28.007313   -12.243887    123353.44    -46087.19    341.86894   -46429.059   0.96208012 
    7300     27.74781   -72.772048    123271.72    -46084.73    338.70135   -46423.432   0.96823874 
    7350    27.974771    36.219991    123295.95   -46079.077    341.47173   -46420.548   0.97825054 
    7400    28.104654    23.518644    123344.62   -46075.118    343.05713   -46418.175   0.98558815 
    7450    27.854153    4.6194431    123343.61   -46070.955    339.99941   -46410.954   0.97266805 
    7500     28.42517    -21.35813    123326.36   -46071.262    346.96948   -46418.231   0.96034695 
    7550    28.337616    14.981344    123310.41   -46076.457    345.90076   -46422.358   0.95822855 
    7600    27.862259    11.510646    123329.14   -46071.299    340.09836   -46411.397   0.96125079 
    7650    27.944883   -54.813611    123284.31   -46074.693    341.10689     -46415.8   0.97148815 
    7700    27.498452    32.380787    123273.67   -46082.518    335.65757   -46418.176   0.97758339 
    7750    27.867766   -42.049148     123321.5   -46083.634    340.16557     -46423.8   0.97559343 
    7800    28.000089    -55.58913    123307.75   -46090.361    341.78077   -46432.142   0.97832551 
    7850    27.855792   -42.051545    123285.95   -46087.673    340.01942   -46427.693   0.97744838 
    7900    27.881581    36.459474    123307.61   -46085.998    340.33421   -46426.332   0.97086837 
    7950    28.076956    9.3428447    123299.38   -46083.296    342.71903   -46426.016   0.97757755 
    8000    28.230163    17.833776    123304.27   -46079.128    344.58915   -46423.717   0.98805586 
    8050    28.384753    31.266463    123335.82   -46082.819    346.47614   -46429.296   0.98504093 
    8100    28.411173    23.973675    123301.55   -46076.741    346.79863    -46423.54   0.99117991 
    8150     27.72976   -28.702129    123299.74   -46082.152    338.48102   -46420.633   0.99125755 
    8200    28.386318    14.881498    123297.57    -46080.72    346.49524   -46427.215   0.99801362 
    8250    28.206782    5.6091459    123255.01   -46082.877    344.30375   -46427.181    1.0055306 
    8300    28.434586    24.021957    123284.34   -46078.558    347.08442   -46425.643   0.99815795 
    8350    28.972115   -11.023123    123296.58   -46074.803    353.64572   -46428.449   0.99919128 
    8400    28.935059    16.903283    123255.75   -46077.844     353.1934   -46431.037   0.99965282 
    8450    28.407106    -66.45656    123269.41   -46083.294    346.74899   -46430.043     1.000956 
    8500    28.043998   -8.0531166    123242.42   -46086.314    342.31674   -46428.631    1.0045055 
    8550    27.987349   -23.717132    123248.79   -46087.997    341.62526   -46429.622   0.99377778 
    8600    28.537394   -37.627908    123258.38    -46087.97    348.33934    -46436.31   0.99796811 
    8650    28.389884   -1.4654111    123178.71   -46086.003    346.53877   -46432.542    1.0083838 
    8700    28.385472     6.878649    123184.02    -46088.25    346.48491   -46434.735    1.0112733 
    8750    28.169794   -7.0156248    123223.04   -46092.653    343.85225   -46436.506    1.0213547 
    8800    28.631087    53.437805    123238.89   -46092.466      349.483   -46441.949     1.020004 
    8850    28.069611   -9.5107392    123202.27   -46097.594    342.62938   -46440.223    1.0071301 
    8900     27.80109    53.373002    123209.72   -46099.839     339.3517   -46439.191    1.0126811 
    8950    28.004654   -40.490726    123210.37    -46101.21    341.83649   -46443.047    1.0162594 
    9000     27.76042    38.700812    123255.95   -46093.606    338.85527   -46432.461    1.0202668 
    9050    28.042031   -33.000304     123251.3   -46096.478    342.29273   -46438.771    1.0173933 
    9100    27.831223   -35.635912    123189.07   -46099.035    339.71952   -46438.755    1.0240178 
    9150    28.305889    18.168302    123213.88   -46092.932    345.51349   -46438.445    1.0145353 
    9200    27.973517   -39.640678    123211.31   -46089.305    341.45642   -46430.761    1.0156993 
    9250    28.187535    31.665436    123206.87   -46096.036    344.06881   -46440.105    1.0192027 
    9300    27.725674    23.707367    123227.59   -46103.422    338.43115   -46441.853    1.0229545 
    9350    27.670207   -41.392812    123207.03   -46103.218    337.75409   -46440.972    1.0213403 
    9400    27.338416    35.353208    123205.27   -46101.311    333.70411   -46435.015    1.0161673 
    9450    28.102575    2.0757262    123203.52   -46101.455    343.03176   -46444.487    1.0097193 
    9500    27.719292   -38.170063    123192.24   -46104.567    338.35324   -46442.921    1.0165685 
    9550    27.847447    7.7167337    123216.05   -46105.053    339.91756    -46444.97    1.0242117 
    9600    27.788925    9.9450567    123198.94   -46104.207    339.20321    -46443.41    1.0306802 
    9650    27.761825   -29.309705     123190.4   -46097.386    338.87241   -46436.258    1.0244169 
    9700    28.376591    9.9295249    123186.63   -46093.685     346.3765   -46440.062    1.0139147 
    9750    28.431862    46.667858    123243.36   -46092.976    347.05117   -46440.027    1.0147891 
    9800    28.444943   -15.686591    123229.91   -46091.415    347.21084   -46438.626    1.0205861 
    9850    28.573019   -23.051826    123212.73   -46093.676    348.77418    -46442.45    1.0309709 
    9900    27.652937  -0.96409712    123220.36   -46094.639    337.54328   -46432.182     1.031279 
    9950     28.38172   -13.229547    123248.05    -46095.08    346.43912   -46441.519     1.033568 
   10000    28.138891   -17.579571    123232.98   -46101.145    343.47504    -46444.62    1.0326762 
   10050    28.530806     9.876773    123238.03   -46096.917    348.25892   -46445.176    1.0312878 
   10100    28.630321  -0.21976668    123231.43   -46096.469    349.47364   -46445.942    1.0368466 
   10150    28.785974    27.561193    123246.11   -46092.393    351.37361   -46443.766    1.0399016 
   10200    28.369464   -39.638058     123209.9   -46094.689    346.28951   -46440.979    1.0356632 
   10250    28.201358    28.353055    123238.27   -46097.235    344.23754   -46441.473    1.0318906 
   10300    28.296979    -5.786836    123213.18   -46095.787    345.40473   -46441.192    1.0271899 
   10350    28.836516    -22.58848    123212.57   -46095.502    351.99055   -46447.493    1.0166063 
   10400    28.773698    28.424522    123204.68   -46095.216    351.22377    -46446.44     1.024499 
   10450    28.178412     -52.8544    123182.55   -46103.157    343.95745   -46447.115    1.0272868 
   10500     27.92737    53.752809    123194.59   -46101.301    340.89313   -46442.194    1.0360927 
   10550    28.645078    9.0577494    123215.28    -46100.34    349.65378   -46449.994    1.0389177 
   10600    27.638319    45.680879    123212.26    -46103.01    337.36485   -46440.375    1.0335681 
   10650    28.151288   -8.8099843    123172.91   -46105.506    343.62636   -46449.133    1.0292475 
   10700    27.676886  -0.85361881    123175.77   -46106.369    337.83562   -46444.204    1.0285221 
   10750    28.040078    5.3228087     123169.2   -46108.567    342.26889   -46450.836    1.0299588 
   10800    27.760879    29.465111    123194.03   -46118.579    338.86087   -46457.439    1.0314109 
   10850    27.621863    9.8678014    123230.47   -46118.168    337.16399   -46455.332    1.0304334 
   10900    27.341806   -5.0819905    123227.93   -46118.106    333.74549   -46451.852    1.0391381 
   10950    27.604332   -5.6970767    123181.03   -46121.164    336.94999   -46458.114    1.0441937 
   11000    27.539579    19.400943    123196.46   -46119.939    336.15959   -46456.098    1.0407394 
   11050    27.637314    4.1159526    123242.77   -46113.345    337.35259   -46450.697    1.0395499 
   11100    27.880515    4.1538021    123208.37   -46113.458     340.3212    -46453.78    1.0440597 
   11150    27.440619   -5.6287662    123201.03   -46118.317    334.95165   -46453.269    1.0471464 
   11200    27.638532   -12.465372    123240.97   -46124.995    337.36745   -46462.363    1.0536475 
   11250     27.68218   -5.2363978    123210.27   -46125.143    337.90024   -46463.043    1.0498262 
   11300    27.769384   -5.5573602    123221.88   -46119.771    338.96468   -46458.736    1.0583887 
   11350    27.692717    34.827041    123259.76   -46124.128    338.02886   -46462.156    1.0625782 
   11400    27.872555   -8.2726043     123253.8   -46119.926    340.22404    -46460.15    1.0718784 
   11450    27.803163    110.95315    123238.98   -46117.982    339.37701   -46457.359    1.0689964 
   11500    27.948516    31.617394    123314.81    -46112.93    341.15124   -46454.081    1.0619685 
   11550    28.495827    8.8930204    123294.55   -46107.012    347.83195   -46454.844    1.0599312 
   11600     28.56825    15.851966    123264.65    -46115.55    348.71597   -46464.266    1.0576342 
   11650    28.778877    2.5744177    123272.23   -46107.151    351.28697   -46458.438    1.0574707 
   11700     28.80476     6.892447    123264.93   -46104.171    351.60292   -46455.774    1.0580752 
   11750    28.362455    22.313919    123295.15   -46106.232    346.20395   -46452.436    1.0588816 
   11800    28.429719    14.534455     123301.1   -46113.538    347.02501   -46460.563    1.0601666 
   11850    28.482562   -8.3384462    123279.97   -46116.652    347.67003   -46464.322    1.0565772 
   11900    28.076899   -43.418597    123286.05   -46118.642    342.71834   -46461.361     1.050644 
   11950    28.086829     -15.0257    123283.38   -46116.906    342.83955   -46459.745    1.0532797 
   12000    27.757907    56.976137    123313.76   -46113.689    338.82459   -46452.513    1.0609663 
   12050     27.99428   -16.922533    123313.16   -46119.421    341.70987   -46461.131     1.053633 
   12100    28.013573    8.5570026    123277.49   -46122.139    341.94536   -46464.084    1.0633442 
   12150    28.203401    26.200032    123327.01   -46123.133    344.26248   -46467.395    1.0597914 
   12200    28.509026    -32.52031    123284.43   -46122.948    347.99307   -46470.941    1.0649695 
   12250    28.243021    6.6479947    123284.67   -46124.009     344.7461   -46468.755    1.0788008 
   12300    28.412378    16.572481    123306.81   -46128.228    346.81334   -46475.041    1.0728796 
   12350    28.002688    6.6983466    123297.34   -46129.154    341.81249   -46470.966    1.0709018 
   12400    28.087054   -61.219419    123303.29   -46125.701     342.8423   -46468.543    1.0707245 
   12450    28.476732   -5.3200268    123311.29   -46126.403    347.59887   -46474.001    1.0639954 
   12500    27.826129   -29.012756    123313.85   -46121.089    339.65734   -46460.747    1.0558297 
   12550    28.564567   -39.727512     123303.2   -46117.381    348.67102   -46466.052    1.0574533 
   12600    28.460391   -1.9946051    123279.55    -46121.07     347.3994   -46468.469    1.0593782 
   12650    28.263505   -27.531274    123302.94   -46123.816    344.99613   -46468.812    1.0724432 
   12700    28.410951   -3.9921229    123299.67   -46124.296    346.79591   -46471.092    1.0716972 
   12750    28.164554   -34.280343    123305.99    -46124.47     343.7883   -46468.259    1.0759899 
   12800    27.806965   -41.175963    123290.46   -46127.906    339.42342    -46467.33    1.0800709 
   12850    28.233619   -30.326509    123328.65   -46128.453    344.63133   -46473.085    1.0779519 
   12900    28.122899    18.443379    123276.47   -46132.953    343.27984   -46476.233    1.0833685 
   12950     27.82919   -37.321456    123297.67   -46132.365     339.6947    -46472.06     1.082216 
   13000    27.509256     19.76629    123321.82   -46133.692    335.78945   -46469.481    1.0834969 
   13050    27.886582   -6.1052888    123328.39    -46135.48    340.39526   -46475.875    1.0907376 
   13100    27.890611   -37.072628    123315.38   -46137.418    340.44443   -46477.862    1.0886613 
   13150     27.88529     60.54071     123307.6   -46142.416    340.37948   -46482.796    1.0724507 
   13200     27.36746   -4.8058202     123299.6   -46142.194    334.05863   -46476.253    1.0795423 
   13250    27.988346   -25.006257    123280.98    -46142.36    341.63743   -46483.998    1.0952793 
   13300    27.594647   -19.184466    123308.16   -46148.912    336.83177   -46485.744    1.0952331 
   13350    27.799539    41.741561    123303.03   -46148.353    339.33277   -46487.686     1.097031 
   13400    27.278766   -55.098271     123304.4   -46153.288      332.976   -46486.264    1.0965478 
   13450    27.279808   -51.351256    123307.21   -46143.578    332.98872   -46476.567    1.0884858 
   13500     27.84324   -27.955979    123295.91   -46142.681     339.8662   -46482.547    1.0849502 
   13550    28.152039    29.524067    123288.65    -46141.55    343.63553   -46485.186    1.0875525 
   13600     28.14472   -5.8825617    123263.59   -46143.448    343.54619   -46486.994    1.0936598 
   13650    27.702612   -74.168166    123208.41   -46148.549    338.14964   -46486.699    1.1049464 
   13700    28.367975     40.53432     123181.4    -46148.02    346.27134   -46494.291    1.1207441 
   13750     28.74069   -17.424519    123184.23   -46144.032    350.82085   -46494.852    1.1330109 
   13800    28.241446   -28.813735    123188.45   -46146.656    344.72687   -46491.383    1.1383542 
   13850    28.044654   -83.969824    123122.79   -46148.362    342.32475   -46490.687    1.1377314 
   13900    28.375279    88.951599    123186.63   -46146.255     346.3605   -46492.616    1.1318051 
   13950    29.006771   -18.408706     123211.1   -46140.611    354.06875    -46494.68    1.1298437 
   14000     28.85191    75.823945    123215.08   -46140.461    352.17845   -46492.639    1.1095443 
   14050    28.410538   -26.995883     123212.4   -46146.738    346.79088   -46493.529     1.109696 
   14100    28.139556   -28.773425    123221.46   -46151.471    343.48316   -46494.954    1.1194959 
   14150       28.561   -40.545822    123174.81   -46154.392    348.62748    -46503.02     1.124041 
   14200    28.819009    2.0161884    123151.71   -46152.807    351.77685   -46504.584    1.1282328 
   14250    28.409613    17.025821    123187.59    -46152.41    346.77958    -46499.19    1.1212758 
   14300    28.631522   -5.0486008    123210.74   -46158.318     349.4883   -46507.806    1.1303168 
   14350    27.662284    -1.562087       123199    -46162.05    337.65738   -46499.707    1.1337691 
   14400    27.724708   -36.838512    123186.71   -46164.474    338.41936   -46502.893    1.1412489 
   14450    27.900091    2.9658692    123218.37   -46166.184    340.56015   -46506.744    1.1389309 
   14500    28.107813    -27.69175    123162.03    -46166.52    343.09569   -46509.616    1.1320371 
   14550    27.800135    3.6012203       123173   -46171.885    339.34005   -46511.225    1.1248334 
   14600    27.858887    27.289081    123204.32   -46167.065     340.0572   -46507.123    1.1363982 
   14650    28.399281   -20.820543    123199.65   -46166.437    346.65347   -46513.091    1.1292472 
   14700    28.001734     -67.4415    123197.56   -46164.031    341.80085   -46505.832     1.126985 
   14750    28.150655    7.2728881    123193.86   -46155.568    343.61863   -46499.187    1.1301963 
   14800    28.308025   -38.722236    123204.18   -46162.294    345.53956   -46507.834    1.1209436 
   14850    27.905475     -41.1289    123216.96   -46162.755    340.62587   -46503.381     1.113242 
   14900    28.761558   -2.6265718    123214.85   -46159.935    351.07558   -46511.011    1.1149645 
   14950    27.978206  -0.54073194    123224.96   -46167.734    341.51366   -46509.248    1.1150405 
   15000    27.922843    20.220332    123240.69   -46167.563    340.83787   -46508.401    1.1197924 
   15050    27.968649   -34.747058    123223.15    -46166.75    341.39699   -46508.147    1.1205484 
   15100    28.104274    12.220963    123195.85   -46170.507     343.0525    -46513.56    1.1164733 
   15150     28.11232    51.584861    123202.16   -46169.105     343.1507   -46512.256    1.1293667 
   15200    28.083695   -6.3420373    123199.49   -46166.455     342.8013   -46509.256    1.1271989 
   15250    28.354605    25.778481    123194.53   -46168.406    346.10814   -46514.515    1.1389601 
   15300    28.005535     38.06574    123238.75   -46171.761    341.84724   -46513.608    1.1322398 
   15350    27.421468   -31.442996     123206.8   -46173.659    334.71788   -46508.377    1.1085312 
   15400    27.809775   -11.365643    123181.49   -46176.058    339.45771   -46515.516    1.0972879 
   15450    27.601405    12.573611    123212.13   -46174.594    336.91427   -46511.508    1.1185397 
   15500    27.980003   -53.720385       123199     -46169.9    341.53559   -46511.436    1.1295809 
   15550    28.071179    15.394031    123209.28     -46160.9    342.64852   -46503.548    1.1336798 
   15600     28.80094   -23.521389    123221.86   -46160.565    351.55628   -46512.121    1.1436576 
   15650    28.569991   -8.6572292    123188.31   -46160.898    348.73723   -46509.635    1.1479942 
   15700    28.656326   -10.974967    123171.31   -46160.933    349.79107   -46510.725    1.1462757 
   15750    28.266405   -33.708723    123158.97   -46161.032    345.03154   -46506.064    1.1624162 
   15800    28.698245   -14.495966    123149.27   -46164.297    350.30275   -46514.599     1.154089 
   15850     28.72158    34.990665    123198.65   -46167.736    350.58759   -46518.324    1.1419796 
   15900    28.294052   -44.888005     123204.1   -46167.187      345.369   -46512.556    1.1506926 
   15950    28.637356   -25.271831    123183.36   -46169.295    349.55952   -46518.854    1.1477177 
   16000    28.109542   -44.149286    123202.08   -46173.844    343.11679   -46516.961     1.143485 
   16050    28.169593   -62.898852    123179.36    -46180.35     343.8498   -46524.199    1.1364474 
   16100    27.983356    14.003368    123144.56   -46181.347    341.57652   -46522.924     1.157374 
   16150    28.182902   0.71707514    123160.96   -46175.837    344.01226    -46519.85    1.1612534 
   16200    28.260162    31.546998    123172.49   -46178.556    344.95533   -46523.512    1.1634257 
   16250    28.072361   -29.949048    123174.61   -46177.271    342.66295   -46519.934    1.1640237 
   16300    28.051742    32.640686    123190.07   -46180.604    342.41126   -46523.015    1.1653797 
   16350    28.680211    12.346606    123179.74   -46177.475    350.08262   -46527.557    1.1643475 
   16400    27.983082    17.185237    123184.92   -46183.134    341.57318   -46524.707    1.1730606 
   16450    28.452755   -8.7397016    123197.85   -46178.318    347.30619   -46525.624    1.1675319 
   16500     27.87818   -25.065675    123208.98   -46175.437     340.2927    -46515.73    1.1672689 
   16550    28.195641    11.464956    123248.63   -46177.331    344.16776   -46521.499    1.1699719 
   16600    27.987483   -1.7257271    123220.49   -46173.989    341.62689   -46515.616    1.1727719 
   16650    27.923426    18.981384    123199.72   -46179.887    340.84499   -46520.732    1.1616465 
   16700    28.138619   -63.628856    123227.91   -46177.116    343.47173   -46520.588    1.1586602 
   16750    28.192769   -19.485571    123189.53   -46181.205    344.13269   -46525.337    1.1656064 
   16800    28.176674   -34.469699    123185.35    -46181.57    343.93624   -46525.506    1.1645217 
   16850    27.841994     21.04913    123147.18     -46183.6    339.85099   -46523.451    1.1720011 
   16900    28.163429     7.015009    123167.63   -46183.916    343.77457   -46527.691    1.1748358 
   16950    28.031369   -15.323185    123168.87   -46186.521    342.16258   -46528.684    1.1827312 
   17000    27.918561   -35.428753    123167.86    -46189.46     340.7856   -46530.245    1.1800505 
   17050    28.100395   -4.8256522    123159.67   -46180.442    343.00514   -46523.448    1.1670059 
   17100    27.924884     30.58232     123174.4    -46183.76    340.86278   -46524.623    1.1703537 
   17150    27.765778   -3.3246166    123196.93   -46188.522    338.92067   -46527.443    1.1698255 
   17200    27.651033   -34.102313    123170.06   -46189.034    337.52005   -46526.554    1.1587682 
   17250    27.380846      12.3914     123135.8   -46191.738    334.22203    -46525.96    1.1660186 
   17300    27.801242   -3.2823503     123150.6    -46195.95    339.35356   -46535.304    1.1692031 
   17350    27.897509   -4.2328706    123182.51   -46193.532    340.52863    -46534.06    1.1739953 
   17400    27.813577    10.476766    123150.43   -46199.084    339.50412   -46538.588    1.1737503 
   17450    27.989468    8.8473239    123161.91   -46190.201    341.65113   -46531.852    1.1823156 
   17500    28.087741   -15.663501    123173.63    -46188.11    342.85069   -46530.961    1.1768541 
   17550    27.785069     26.96351    123147.57    -46186.36    339.15614   -46525.516    1.1753956 
   17600    28.117602    83.548678    123178.83   -46191.161    343.21518   -46534.376    1.1794275 
   17650    27.975467   -4.6699774    123197.04   -46190.764    341.48022   -46532.244     1.202048 
   17700    27.808608   -42.116489    123181.35   -46194.945    339.44347   -46534.388    1.1957561 
   17750    27.724789   -34.248685    123176.79   -46196.932    338.42034   -46535.352    1.1957443 
   17800    28.180292    8.8724446    123183.86    -46194.61     343.9804    -46538.59     1.185128 
   17850    28.210255   -6.7486957    123196.36   -46188.357    344.34614   -46532.703    1.1899927 
   17900     27.99813    13.267955    123185.47   -46188.204    341.75685   -46529.961    1.1839188 
   17950    27.483615   -17.518747    123190.94   -46189.517    335.47646   -46524.993    1.1854269 
   18000    27.915145   -20.302284    123227.75   -46184.633    340.74391   -46525.377    1.1949634 
   18050    28.494101    30.277917    123229.95   -46180.753    347.81088   -46528.563    1.2004939 
   18100    28.152531    3.7299612    123223.52   -46181.507    343.64153   -46525.149    1.2045966 
   18150    27.854765    28.066313    123206.72   -46186.373    340.00688    -46526.38    1.2019343 
   18200    27.739198   -38.962612    123174.88   -46190.444    338.59623    -46529.04    1.1977219 
   18250    27.829185   -10.552817    123174.13    -46189.34    339.69464   -46529.035    1.1930942 
   18300    27.880019    37.949964    123189.18     -46185.4    340.31514   -46525.715    1.1989578 
   18350    28.287109    26.389264    123193.86     -46189.6    345.28425   -46534.884     1.199712 
   18400    27.442815   -24.422207    123183.46   -46196.382    334.97845   -46531.361    1.1949786 
   18450    28.146337    5.9629207    123172.36   -46195.056    343.56593   -46538.622    1.1829721 
   18500     27.59138   -21.189165    123200.89   -46192.031     336.7919   -46528.823    1.1804566 
   18550    28.008627    52.446702    123217.95   -46189.565    341.88499    -46531.45    1.1748982 
   18600    28.334729   -29.203026    123193.68   -46185.105    345.86553    -46530.97    1.1836371 
   18650    28.162422    5.0309157    123189.74   -46189.309    343.76227   -46533.071    1.1872285 
   18700    27.875468    9.4702199     123223.8   -46187.503    340.25959   -46527.762     1.198643 
   18750    28.434656   -38.308762     123191.6   -46190.296    347.08527   -46537.381    1.1982324 
   18800    28.192662    19.989765    123175.45   -46190.976    344.13139   -46535.108    1.1825322 
   18850     27.91946   -20.970067    123198.63   -46187.683    340.79657    -46528.48    1.1886969 
   18900    28.174037    20.769252    123202.55   -46188.257    343.90405   -46532.161    1.2052485 
   18950    28.562319   -14.991735    123200.43   -46185.514    348.64358   -46534.157    1.1899779 
   19000    28.078053   -19.230822    123214.38   -46185.714    342.73243   -46528.447    1.1970749 
   19050    28.158216    27.181542    123173.55   -46186.788    343.71093   -46530.499    1.1935105 
   19100    27.856547   -30.638481    123178.86   -46183.297    340.02863   -46523.326    1.1856267 
   19150    27.724055    38.005975    123203.66   -46187.772    338.41138   -46526.183    1.1908752 
   19200    27.995764     3.884001    123234.58   -46188.704    341.72797   -46530.432    1.1827196 
   19250    28.042928   -10.812285    123220.85   -46183.313    342.30367   -46525.617    1.1976338 
   19300     29.11843    2.0787307    123202.24   -46174.704     355.4317   -46530.135    1.1905273 
   19350    28.775983    29.530328    123232.11   -46181.775    351.25166   -46533.026    1.1884259 
   19400    28.264176   -95.567491    123209.31   -46183.492    345.00432   -46528.496    1.1929601 
   19450    27.777024    52.551471    123211.93   -46184.583    339.05794    -46523.64    1.2013139 
   19500    28.130079    -20.97762    123232.68   -46180.155    343.36748   -46523.522    1.2010733 
   19550    28.752437   -45.178775    123197.33   -46180.957    350.96425   -46531.922    1.1973355 
   19600    28.262669   -14.054379    123198.83   -46182.491    344.98593   -46527.477    1.1997611 
   19650    28.302445    29.246288    123207.59   -46176.479    345.47145   -46521.951    1.1930713 
   19700    28.549795    17.999371    123191.24   -46184.174     348.4907   -46532.664    1.1819062 
   19750    29.011716    8.9093771    123212.84    -46181.56     354.1291   -46535.689    1.1890231 
   19800    28.470526   -33.493255    123209.14   -46183.042    347.52312   -46530.566     1.178946 
   19850    28.451221    -34.48351    123222.37   -46176.124    347.28747   -46523.412    1.1828919 
   19900    27.899004   -16.362482    123187.88   -46185.579    340.54688   -46526.126    1.1874403 
   19950     27.84257    44.599113    123183.77   -46185.351    339.85802   -46525.209    1.1857661 
   20000    28.326121     2.242946     123204.8   -46188.974    345.76045   -46534.735    1.1874153 
   20050    27.782728   -58.535813     123194.4    -46191.83    339.12757   -46530.958    1.1923978 
   20100    28.402631    10.416965    123218.39   -46192.492    346.69436   -46539.187    1.1939694 
   20150    27.859825    27.324625    123208.72   -46192.689    340.06865   -46532.757    1.1976486 
   20200    27.960116     11.34663    123220.75   -46193.424    341.29284   -46534.717    1.2003906 
   20250     28.32168   -49.896967    123219.59   -46192.642    345.70625   -46538.348    1.2002197 
   20300    27.993289    66.337316    123203.19   -46186.642    341.69776    -46528.34    1.2067698 
   20350    28.676541   -68.470617       123237   -46183.217    350.03782   -46533.255    1.1960116 
   20400    27.703973    -16.79251    123186.78   -46189.284    338.16625   -46527.451    1.1867335 
   20450    27.727935    35.706162     123186.5   -46191.371    338.45874   -46529.829    1.1885959 
   20500    27.871455    21.258857    123209.81   -46194.083     340.2106   -46534.293    1.1894738 
   20550    27.913942    30.714259    123232.53   -46200.466    340.72922   -46541.195    1.1839261 
   20600    27.995561   -50.741138    123185.44   -46197.058     341.7255   -46538.783    1.1943455 
   20650    27.994434    1.1107305    123158.54   -46199.403    341.71174   -46541.114    1.2066048 
   20700    28.196287   -13.225051    123181.97   -46193.011    344.17564   -46537.187    1.1982103 
   20750    27.710297    18.627454    123202.97   -46191.569    338.24345   -46529.813    1.1944972 
   20800    28.377582   -46.783963    123192.43   -46185.518    346.38861   -46531.907    1.1889611 
   20850    28.498777    15.201237     123167.4   -46183.407    347.86796   -46531.275    1.1917602 
   20900    27.852877   -17.964226     123157.9   -46186.479    339.98383   -46526.463    1.1952302 
   20950    27.790076    25.033083    123157.37   -46188.598    339.21726   -46527.815    1.1922889 
   21000    27.763277   -4.3923189    123178.72   -46191.292    338.89014   -46530.183    1.1951466 
   21050     27.90292    57.951888    123180.82   -46187.569    340.59468   -46528.163    1.1909731 
   21100    28.316694   -16.627624     123180.2   -46187.174    345.64538   -46532.819    1.2025618 
   21150    28.091326   -8.9891055    123169.14   -46189.356    342.89445   -46532.251     1.200611 
   21200     28.57571    29.184791    123195.28   -46188.172    348.80703   -46536.979    1.2039378 
   21250    28.413817    23.097017    123180.17   -46185.619     346.8309    -46532.45    1.2140158 
   21300    28.056877    50.642613     123178.5   -46184.822    342.47395   -46527.296    1.2234593 
   21350    28.288265   0.25256205    123165.31   -46189.153    345.29836   -46534.451    1.2103785 
   21400    28.110482   -13.541109    123214.86     -46190.6    343.12827   -46533.728    1.2079223 
   21450    28.666387   -17.211245    123183.08   -46184.323    349.91388   -46534.237    1.2096835 
   21500    28.372095   -4.4521279    123158.28   -46185.614    346.32163   -46531.936    1.2054403 
   21550    28.035607    43.901014    123204.27    -46183.38    342.21432   -46525.594    1.2005399 
   21600    28.173171   -9.7222912    123187.86   -46184.477    343.89347   -46528.371    1.1945022 
   21650    28.620557   -1.2560641    123165.26   -46188.747    349.35446   -46538.102    1.2006663 
   21700     27.75267    30.937414     123161.9   -46194.437    338.76067   -46533.198    1.2050711 
   21750    28.267657    7.2018029    123158.65   -46197.187    345.04681   -46542.234    1.2013882 
   21800    28.178293   -25.294215    123162.75   -46196.001      343.956   -46539.957    1.2058227 
   21850    27.504032     38.78719    123159.72   -46196.077    335.72569   -46531.803    1.2117784 
   21900    28.279594   -1.0742731    123170.91   -46195.711    345.19252   -46540.903    1.2131756 
   21950    28.382967   -60.829482    123187.56   -46195.483    346.45433   -46541.938    1.2052243 
   22000    28.291099   -16.844859    123140.35   -46201.874    345.33295   -46547.207    1.2045654 
   22050    27.746156    37.049682    123162.55   -46198.175    338.68115   -46536.856    1.2106243 
   22100    27.843672   -6.7649333    123145.58   -46199.807    339.87148   -46539.678    1.2065151 
   22150    27.371198    46.227627    123128.78   -46207.555    334.10426   -46541.659    1.2039619 
   22200    27.088843   -14.628653    123189.85   -46212.883    330.65772   -46543.541    1.2127849 
   22250    28.097882   -77.009589     123143.8   -46205.791    342.97447   -46548.766    1.2168931 
   22300    27.533814    25.987019    123155.91   -46204.046    336.08922   -46540.135     1.200222 
   22350     28.09932   -13.069027    123165.54   -46193.982    342.99202   -46536.974    1.1949442 
   22400    28.477291    8.4344214    123188.41   -46193.592    347.60569   -46541.198    1.1983098 
   22450    27.773892   -1.2083745    123192.79    -46194.49    339.01971   -46533.509    1.2025736 
   22500    27.616314    -3.349369    123178.72    -46194.67    337.09625   -46531.766    1.2005151 
   22550    27.359902    1.1273835    123158.71   -46196.998    333.96638   -46530.964    1.2088159 
   22600    28.089881    15.639067    123157.35   -46196.656    342.87681   -46539.533    1.2157125 
   22650    27.998331    17.814467    123162.38   -46202.442     341.7593   -46544.201    1.2156885 
   22700    27.586548    27.571532    123147.93   -46202.596    336.73292   -46539.329    1.2182419 
   22750    27.684607   -4.6148036    123131.66   -46201.477    337.92986   -46539.407    1.2102949 
   22800    28.045539   -2.2627517    123155.53   -46196.243    342.33555   -46538.578    1.2145799 
   22850    28.338239    42.441092    123160.03   -46197.599    345.90837   -46543.507    1.2037215 
   22900    28.287054   -47.374284     123133.6   -46200.016    345.28359   -46545.299     1.195923 
   22950    27.900648    21.495488    123122.03   -46206.306    340.56695   -46546.873    1.1969055 
   23000    27.754111   -38.097927    123108.42   -46205.847    338.77826   -46544.625    1.1980913 
   23050    27.433785    42.988539     123149.4   -46205.906    334.86823   -46540.774    1.2169734 
   23100    28.300406    19.478275    123136.37   -46197.774    345.44656   -46543.221    1.2170629 
   23150    27.800067   0.50028427    123143.33   -46205.056    339.33921   -46544.395    1.2165716 
   23200    27.896937    7.0925374       123147   -46197.269    340.52165   -46537.791    1.2313382 
   23250    28.013319  -0.25725626    123148.59     -46195.9    341.94225   -46537.842    1.2222937 
   23300    28.395882    13.612144    123137.96    -46197.74    346.61198   -46544.352    1.2198299 
   23350    28.230923   -43.766267    123148.35   -46193.538    344.59843   -46538.136    1.2137464 
   23400    28.628581   -1.3712767    123174.91   -46196.215     349.4524   -46545.668       1.2015 
   23450    28.329037    10.938044    123142.26   -46194.806    345.79604   -46540.602    1.2005815 
   23500    28.678647   -17.379563    123125.98   -46194.654    350.06352   -46544.717    1.1892344 
   23550      28.2637   -39.587009    123135.44   -46188.538    344.99851   -46533.537    1.1886473 
   23600    28.445237    34.440752    123093.03   -46189.615    347.21443    -46536.83     1.204249 
   23650    28.479381    16.808159     123120.9   -46193.668    347.63121   -46541.299    1.2170854 
   23700    28.404223   -8.8549592     123105.2   -46192.153    346.71379   -46538.867    1.2253994 
   23750    28.170127    15.640378    123145.72   -46192.055    343.85632   -46535.911    1.2094659 
   23800     28.04923   -4.4534891    123170.07   -46192.433     342.3806   -46534.814    1.1985093 
   23850    28.125451   -22.450158    123145.85    -46199.73    343.31099   -46543.041    1.1993966 
   23900    27.423193    6.4893028     123152.3   -46202.067    334.73893   -46536.805    1.2162123 
   23950    27.963942    17.948298    123143.44   -46198.254    341.33954   -46539.593    1.2074504 
   24000    27.813145    -9.159698    123141.92   -46196.605    339.49886   -46536.104    1.2116569 
   24050    28.388403    18.301618    123096.76   -46194.806    346.52069   -46541.326    1.2168143 
   24100    27.930453    17.087186    123151.88   -46193.527    340.93076   -46534.458    1.2154362 
   24150    28.117985   -24.825306    123125.58   -46193.003    343.21986   -46536.222    1.2106329 
   24200    28.039354   -35.355155    123165.73   -46199.475    342.26005   -46541.735    1.2071118 
   24250     28.36493   -6.1165508     123143.3   -46202.107    346.23417   -46548.342    1.2021064 
   24300    27.557148    10.744979    123137.04   -46203.641    336.37404   -46540.015    1.1956301 
   24350    27.821776    11.968815    123122.41   -46204.422    339.60421   -46544.026    1.1921497 
   24400    27.404161      -48.976    123113.24   -46208.951    334.50663   -46543.458    1.2129014 
   24450     27.72713    35.847172    123143.93   -46203.139    338.44892   -46541.588    1.2174207 
   24500    28.241067   -19.933517    123142.09   -46204.049    344.72224   -46548.771    1.2227598 
   24550    27.768354   -53.169299    123093.96   -46205.547    338.95211     -46544.5    1.2186735 
   24600    27.981467     19.93756    123080.67   -46208.044    341.55345   -46549.598     1.217696 
   24650    27.798887    28.730246    123096.22   -46206.509    339.32481   -46545.834    1.2069505 
   24700    27.367963   -31.245021    123118.14   -46208.286    334.06477   -46542.351    1.2035238 
   24750    27.948197   -41.717665    123134.99   -46201.758    341.14735   -46542.905    1.2026583 
   24800    27.711181   -5.8234138    123086.43   -46205.716    338.25424    -46543.97    1.2047033 
   24850    27.865628    49.783433    123124.82   -46202.373    340.13948   -46542.513    1.1998629 
   24900    27.787583   -36.677289    123111.58   -46206.892    339.18683   -46546.079     1.202566 
   24950    27.831522   -3.6135615    123129.64   -46207.746    339.72316    -46547.47    1.2020748 
   25000     28.25506   -17.677126    123100.73     -46203.5    344.89305   -46548.393    1.2231802 
   25050    27.705433   -29.093861    123092.62   -46209.254    338.18407   -46547.439      1.21314 
   25100    27.874479    9.8072833    123117.74   -46208.812    340.24752    -46549.06    1.2060738 
   25150    27.621157   -0.1803199    123133.98   -46211.765    337.15537    -46548.92    1.2150292 
   25200      27.6521    20.853311     123127.5   -46219.387    337.53307    -46556.92     1.219225 
   25250    26.903357   -30.498228    123149.29   -46216.793     328.3936   -46545.187    1.2213012 
   25300    27.677086    10.464261    123145.01   -46213.138    337.83805   -46550.976    1.2285467 
   25350    27.980561   -9.1345298    123131.88   -46202.592     341.5424   -46544.135    1.2230745 
   25400    27.694318   -28.978552    123128.71   -46207.803    338.04839   -46545.851    1.2172545 
   25450    28.059531   -2.1962881    123129.44   -46205.274    342.50635    -46547.78     1.201294 
   25500    27.540352    42.964913    123113.15   -46202.794    336.16903   -46538.963    1.2114808 
   25550    28.648389    5.3503789     123135.8   -46197.045    349.69418   -46546.739     1.214268 
   25600     28.17033   -1.3529296    123155.18   -46188.874     343.8588   -46532.732    1.2163911 
   25650    28.153405   -22.019278    123160.91    -46194.85     343.6522   -46538.502    1.2144637 
   25700    28.297462   -24.248612    123129.84   -46201.038    345.41062   -46546.449    1.2226189 
   25750     27.86168   -28.886873    123138.74   -46201.688    340.09128    -46541.78    1.2275904 
   25800    28.180298    31.078472    123153.84   -46189.875    343.98047   -46533.856    1.2330342 
   25850    27.900585    23.631293    123167.14   -46189.292    340.56618   -46529.858    1.2235784 
   25900    28.600597   -56.525747    123141.28    -46190.75    349.11082   -46539.861    1.2220779 
   25950    28.290022   -13.098531    123140.06   -46197.573    345.31982   -46542.893    1.2206623 
   26000    28.052207   -12.901634    123149.23   -46194.064    342.41695   -46536.481    1.2198159 
   26050    27.932067    8.5429525     123154.6   -46195.786    340.95046   -46536.736    1.2180899 
   26100    28.099755    2.8920137    123158.28   -46196.211    342.99733   -46539.208    1.2099337 
   26150     28.22035   -19.922239    123160.62   -46195.211    344.46937    -46539.68    1.2066095 
   26200    28.113007   -4.4884961    123109.49   -46200.217    343.15909   -46543.377    1.2028957 
   26250    27.518739    12.701757    123115.24   -46202.965    335.90521    -46538.87    1.2014982 
   26300    27.715733    41.528924    123115.49   -46205.394    338.30979   -46543.704    1.2123931 
   26350    28.139323    19.208616    123135.84    -46205.14    343.48032    -46548.62     1.221337 
   26400    27.823235    20.717421    123137.96    -46207.21    339.62202   -46546.832    1.2309436 
   26450    28.233017    28.729312    123156.63    -46198.54    344.62399   -46543.164    1.2272769 
   26500    28.339223   -30.705203    123145.43   -46199.274    345.92037   -46545.195    1.2316588 
   26550    28.225403    36.603075    123126.63   -46197.735    344.53105   -46542.266    1.2287857 
   26600     28.17927   -46.177223    123158.11   -46196.579    343.96792   -46540.547    1.2408042 
   26650    28.550959    9.1530876    123172.77   -46197.933    348.50491   -46546.438    1.2339885 
   26700    28.185322   -1.4003003    123129.95   -46194.533    344.04179   -46538.575    1.2239563 
   26750    28.744431   -16.122437    123148.53   -46193.505    350.86652   -46544.372    1.2218243 
   26800    28.402661    -8.385948     123134.3   -46201.143    346.69473   -46547.838    1.2294514 
   26850    28.332022    23.510081    123104.93   -46203.229    345.83248   -46549.061    1.2248088 
   26900    28.561285   -14.598627    123136.27   -46197.464    348.63096   -46546.095    1.2207404 
   26950    28.900449    8.9274867    123130.51   -46196.206    352.77093   -46548.977    1.2149813 
   27000     28.22509    19.487075    123124.96   -46197.695    344.52722   -46542.222    1.2302568 
   27050    28.254814    24.549634    123129.62   -46199.871    344.89005   -46544.761    1.2303296 
   27100    28.762118   -26.778923    123131.77    -46197.07    351.08241   -46548.153     1.227237 
   27150    28.379781    29.355055    123156.05   -46197.713    346.41545   -46544.129    1.2341488 
   27200    28.145481    28.206897     123177.8   -46200.072    343.55549   -46543.628    1.2356635 
   27250    27.915145   -3.8837623    123163.47   -46197.673     340.7439   -46538.417    1.2391397 
   27300    28.951889   -25.789585    123149.68   -46191.506    353.39884   -46544.905    1.2384308 
   27350    28.590314    26.826547    123166.88   -46191.728     348.9853   -46540.713    1.2275047 
   27400    28.288967   -15.509358    123171.94   -46195.532    345.30693   -46540.839     1.228306 
   27450    27.828466   -46.545631    123145.05   -46198.469    339.68586   -46538.155    1.2262171 
   27500    27.786047   -6.6806395    123145.19   -46205.897    339.16808   -46545.065    1.2238107 
   27550    27.438222    22.026713    123161.68   -46211.842    334.92238   -46546.764     1.222164 
   27600    27.538218   -33.632668       123149   -46216.128    336.14297   -46552.271    1.2270351 
   27650    27.814922   -16.009148    123149.69   -46213.041    339.52054   -46552.562    1.2302606 
   27700    27.922203   -21.642626     123158.4   -46206.986    340.83005   -46547.816     1.228805 
   27750    28.664343   -8.7502134    123173.03   -46199.437    349.88893   -46549.326     1.239171 
   27800    28.279705    17.557507    123160.97    -46199.46    345.19387   -46544.654     1.239801 
   27850    28.092578    38.393844    123187.28   -46202.132    342.90973   -46545.042    1.2339598 
   27900     27.68258   -17.861754    123151.63   -46208.682    337.90512   -46546.587    1.2265067 
   27950    27.834332    14.809564     123165.9   -46208.549    339.75747   -46548.307    1.2358169 
   28000    27.530074   -18.496326    123156.44   -46213.745    336.04357   -46549.788    1.2441231 
   28050      27.2696   -13.710645    123134.17   -46214.826    332.86411    -46547.69    1.2388446 
   28100    27.952477   -26.379932     123156.5   -46211.703     341.1996   -46552.903     1.237112 
   28150    28.046159   -41.323037     123144.5   -46208.372    342.34312   -46550.715    1.2312296 
   28200    28.118483   -18.797732    123116.42    -46209.48    343.22594   -46552.706    1.2251813 
   28250    27.922941   -15.608224    123164.08   -46208.738    340.83907   -46549.577    1.2287175 
   28300    27.370422   -6.7031233    123152.05   -46208.445    334.09478    -46542.54     1.229015 
   28350    28.117559   -17.556394    123128.71   -46205.504    343.21466   -46548.718    1.2331368 
   28400    28.334635    7.7369273    123150.96   -46207.524    345.86437   -46553.389    1.2282815 
   28450    27.929633   -19.122033    123168.01   -46204.605    340.92075   -46545.526    1.2378995 
   28500    27.615764     38.87006    123170.85   -46208.925    337.08954   -46546.014    1.2345211 
   28550    27.650665    5.8338794    123163.48   -46209.245    337.51555    -46546.76    1.2267257 
   28600    27.717565    2.8616159    123197.04   -46210.795    338.33216   -46549.127    1.2195846 
   28650    28.353677   -27.164589    123185.29   -46209.418     346.0968   -46555.515    1.2291002 
   28700    27.613121   -36.387024    123150.09   -46209.589    337.05727   -46546.646    1.2367087 
   28750    27.812461    50.074664    123178.86   -46209.561     339.4905   -46549.052    1.2341466 
   28800    28.024967   -63.668249       123191   -46212.213    342.08443   -46554.297    1.2283691 
   28850    27.750596    29.011138     123152.6   -46209.718    338.73536   -46548.453    1.2288721 
   28900    27.897316   -5.6110139    123154.16   -46208.578    340.52628   -46549.104    1.2200641 
   28950     27.94302    50.309299    123174.83   -46206.967    341.08415   -46548.051    1.2229155 
   29000    27.666566   -49.891759    123202.73   -46205.933    337.70965   -46543.643    1.2340252 
   29050    27.894584    33.717807    123179.85   -46205.082    340.49292   -46545.575    1.2291862 
   29100    27.968645   -46.579848    123160.67   -46202.385    341.39695   -46543.782    1.2401983 
   29150    28.541024   -6.1628019     123148.8   -46197.988    348.38364   -46546.372    1.2351446 
   29200     29.17903    12.557674    123145.43   -46194.705    356.17142   -46550.876    1.2309615 
   29250    28.435695    15.545234     123143.9   -46199.637    347.09795   -46546.734    1.2344305 
   29300    28.378723   -26.050404    123186.19   -46197.551    346.40253   -46543.954    1.2333927 
   29350    28.124752    18.653223    123160.06   -46200.503    343.30246   -46543.806    1.2228007 
   29400     28.15696    22.570067    123173.29     -46202.5     343.6956   -46546.195    1.2249629 
   29450    28.038865   -37.730844    123158.43   -46197.974    342.25409   -46540.228    1.2238034 
   29500    28.550504    16.248232    123165.48   -46200.463    348.49937   -46548.962    1.2337982 
   29550    27.980881    29.765211    123176.81   -46203.143    341.54631    -46544.69     1.232773 
   29600    28.161826   -57.876935     123163.9   -46199.826    343.75499   -46543.581    1.2342534 
   29650    28.287846    24.702113    123157.22   -46195.815    345.29324   -46541.108    1.2416353 
   29700    27.914039    18.546969    123177.66   -46205.951     340.7304   -46546.682    1.2484026 
   29750    27.581122   -23.557142    123181.13   -46210.048    336.66669   -46546.714    1.2350943 
   29800    27.534235    24.755427     123173.4   -46215.247    336.09435   -46551.341    1.2237817 
   29850    27.682605    9.1538071    123194.37    -46210.55    337.90542   -46548.455    1.2314067 
   29900    27.905612   -51.592844    123180.43   -46209.191    340.62754   -46549.818    1.2266068 
   29950    27.462354   -10.170356    123174.66   -46213.097    335.21695   -46548.314    1.2326041 
   30000    27.896242    5.5984759    123125.63   -46213.853    340.51317   -46554.366    1.2357069 
   30050    27.318488   -30.710306    123130.14   -46209.867    333.46086   -46543.328    1.2357931 
   30100    28.311319    31.244646    123137.45   -46204.542    345.57976   -46550.121    1.2424742 
   30150    28.346126     19.62375    123149.52   -46204.834    346.00463   -46550.838    1.2277876 
   30200    27.700044   -13.746917    123138.91   -46209.613    338.11829   -46547.732    1.2260903 
   30250    27.882569    15.993316    123160.54   -46206.796    340.34627   -46547.143    1.2208262 
   30300    28.079695    -36.39068    123146.25   -46208.619    342.75247   -46551.372    1.2242174 
   30350    28.178292     45.53994    123120.59   -46201.917    343.95598   -46545.873    1.2238929 
   30400    28.090178    45.099914    123145.89   -46206.042    342.88043   -46548.923     1.234178 
   30450    27.556678    -35.20776    123137.71   -46218.056    336.36831   -46554.424    1.2310468 
   30500      27.3864    26.940954    123136.76    -46217.13    334.28982    -46551.42     1.221334 
   30550    27.507423   -11.884843    123176.89   -46216.686    335.76708   -46552.453    1.2289683 
   30600    27.796782   0.76346161    123145.93   -46211.568    339.29912   -46550.867    1.2425529 
   30650      27.7607   -11.030613     123163.4   -46211.766    338.85869   -46550.624    1.2391063 
   30700    27.902914   0.86596614     123144.3   -46214.434    340.59461   -46555.029    1.2253166 
   30750    27.814787   -9.7904927     123139.6   -46210.568    339.51889   -46550.087    1.2270525 
   30800    27.856041    5.4014799    123151.66   -46209.539    340.02246   -46549.562    1.2218831 
   30850    28.027632   -16.050139    123166.77   -46200.113    342.11697    -46542.23    1.2262625 
   30900    28.091766   -13.928729    123155.69   -46202.939    342.89982   -46545.839    1.2275753 
   30950    28.140502   -63.463726    123134.29   -46202.565     343.4947   -46546.059    1.2370542 
   31000    28.196621   -19.521735    123144.65   -46205.046    344.17971   -46549.226    1.2386535 
   31050    28.284969   -21.496489    123132.89   -46205.194    345.25813   -46550.452    1.2269831 
   31100    27.784573    -14.37703    123149.23   -46206.305    339.15009   -46545.455    1.2365856 
   31150    28.120674    6.4395163    123166.67   -46204.637    343.25268    -46547.89    1.2409537 
   31200     28.01985    24.530964     123164.7   -46205.713    342.02198   -46547.735    1.2372364 
   31250    28.503664    24.044685    123177.58   -46202.084    347.92762   -46550.012    1.2307612 
   31300    27.900759    6.2803712    123178.43   -46195.992    340.56831   -46536.561    1.2356632 
   31350    28.280858    5.9028445    123211.43   -46198.319    345.20795   -46543.527    1.2270294 
   31400    28.440899   -19.018631    123211.56   -46204.068    347.16148    -46551.23    1.2317014 
   31450    27.932855    10.504448    123156.04   -46203.632    340.96008   -46544.592    1.2397289 
   31500    28.432857    36.351196    123145.13   -46199.744    347.06331   -46546.807    1.2320452 
   31550    28.179473   -21.499641    123147.39   -46202.928     343.9704   -46546.899    1.2342125 
   31600    28.251334   -7.3684855    123169.87   -46202.147    344.84757   -46546.995    1.2302248 
   31650    28.284327    -23.72351    123166.07   -46205.853     345.2503   -46551.104     1.233296 
   31700    28.145274   -9.0067343    123135.94   -46201.662    343.55296   -46545.215    1.2367312 
   31750    28.190583    44.881434    123166.09   -46196.152    344.10602   -46540.258    1.2383059 
   31800    28.184784   -20.014128    123184.91    -46200.16    344.03523   -46544.195    1.2387767 
   31850    27.647206    13.685716    123193.16   -46207.802    337.47332   -46545.275    1.2466748 
   31900    28.017032      1.41192    123156.86   -46206.686    341.98758   -46548.674    1.2417387 
   31950     27.93318   -24.638275    123178.05   -46207.263    340.96404   -46548.227    1.2371893 
   32000    28.331384   -6.2458286    123156.82   -46204.377    345.82469   -46550.202    1.2245494 
   32050    28.280706    29.387149    123176.53   -46202.572     345.2061   -46547.778    1.2259948 
   32100    28.210029    6.1886326    123164.43   -46207.579    344.34338   -46551.923    1.2232907 
   32150    27.688145   -34.387466    123147.75   -46208.559    337.97304   -46546.532    1.2283108 
   32200    27.227167    38.643725    123168.78   -46217.643    332.34616   -46549.989    1.2354974 
   32250     27.52772   -11.620655    123153.65   -46217.782    336.01483   -46553.796    1.2441675 
   32300    28.200893    6.2816509    123166.27   -46213.079    344.23187   -46557.311    1.2454126 
   32350    27.249412   -78.605989    123151.72   -46213.983    332.61769   -46546.601     1.234431 
   32400    27.811803    42.525134    123136.79   -46214.749    339.48247   -46554.231    1.2314258 
   32450    27.970196   -54.491723    123168.51   -46212.075    341.41588   -46553.491    1.2347206 
   32500    28.041507   -14.072357    123137.52   -46205.807    342.28633   -46548.093    1.2215934 
   32550    27.887962     6.448194    123130.55   -46206.687     340.4121   -46547.099    1.2102788 
   32600    28.152684    15.708396    123157.73   -46201.065     343.6434   -46544.709     1.219302 
   32650    27.935389    -7.385334    123186.36   -46202.686    340.99101   -46543.677    1.2314824 
   32700    27.798426   -1.7008687    123141.04   -46210.204    339.31918   -46549.523    1.2328474 
   32750    27.703509    29.148794    123157.53   -46206.405    338.16059   -46544.566    1.2387085 
   32800    28.105915    19.736223    123177.65    -46198.81    343.07252   -46541.882    1.2443074 
   32850    28.014483   -23.961772    123164.98   -46198.616    341.95647   -46540.572    1.2393405 
   32900    28.570715   -29.798207    123153.13   -46204.066    348.74607   -46552.812    1.2401817 
   32950    28.235243   0.54104675    123142.19   -46202.414    344.65115   -46547.065    1.2376183 
   33000    28.102077    17.007306    123166.78   -46202.875    343.02568   -46545.901    1.2248188 
   33050    28.049899   -55.089541    123162.69   -46205.882    342.38877    -46548.27    1.2276985 
   33100    28.227689   -25.531914    123178.16   -46203.946    344.55895   -46548.505    1.2243748 
   33150    28.008883    32.908804    123167.18   -46202.914    341.88811   -46544.802    1.2288106 
   33200     27.93759   -3.6219141    123131.51    -46205.43    341.01788   -46546.448    1.2336212 
   33250    27.858558    23.002942    123141.13   -46206.505    340.05318   -46546.558    1.2363221 
   33300    28.193895    37.831632    123146.04   -46203.624    344.14644   -46547.771    1.2520592 
   33350    28.417219   -3.6622573     123141.6   -46206.827    346.87243   -46553.699    1.2383558 
   33400    28.094689   -12.830724    123123.78   -46207.084    342.93549   -46550.019    1.2300361 
   33450    27.857441   -18.457108    123136.53   -46211.186    340.03954   -46551.226    1.2249534 
   33500    27.525694     26.24573    123138.57   -46211.487    335.99011   -46547.477    1.2233114 
   33550    28.267343   -40.729406    123097.82   -46207.762    345.04298   -46552.805    1.2255942 
   33600    27.845018     15.12964    123127.15    -46209.43    339.88791   -46549.318    1.2238707 
   33650     27.68562   -22.629681    123135.18   -46206.405    337.94223   -46544.347    1.2371315 
   33700    28.128125    4.5732145    123135.75   -46205.888    343.34363   -46549.232    1.2383225 
   33750    28.844075   -6.2958109    123143.58   -46194.841    352.08282   -46546.923    1.2300518 
   33800    28.349663   -22.729507    123142.35    -46193.17    346.04781   -46539.218    1.2333529 
   33850    28.470764    13.226386     123148.2    -46194.54    347.52602   -46542.066    1.2301082 
   33900    28.660629    6.3783942    123167.59    -46192.16     349.8436   -46542.003    1.2244397 
   33950    28.101052    4.5362846    123160.09   -46199.168    343.01317   -46542.181    1.2197849 
   34000    27.872951   -18.268787     123163.4   -46207.915    340.22886   -46548.143    1.2266914 
   34050    28.117292    61.798957    123134.25    -46206.35     343.2114   -46549.561    1.2367182 
   34100    28.229688    32.625596    123187.54   -46206.537    344.58335   -46551.121    1.2284342 
   34150    28.098498   -28.521215    123150.82   -46211.167    342.98199   -46554.149    1.2289809 
   34200    28.330215   -13.557223    123179.69   -46210.251    345.81042   -46556.061    1.2333486 
   34250    28.051955     74.25317    123157.31    -46209.45    342.41387   -46551.864    1.2401832 
   34300    27.336667   -7.7103228    123137.75   -46213.192    333.68276   -46546.875    1.2246595 
   34350    27.863042    -26.11371       123147   -46212.525    340.10792   -46552.633    1.2172426 
   34400    27.786659    26.132835       123155   -46210.907    339.17555   -46550.083    1.2215659 
   34450    27.803758    10.478813    123184.76   -46208.048    339.38426   -46547.432    1.2103732 
   34500     28.36247   -7.7331763    123195.01   -46199.535    346.20415   -46545.739    1.2119954 
   34550    28.869121   -32.951627    123203.46   -46190.955    352.38854   -46543.344     1.230345 
   34600    28.583298    13.345251    123159.11   -46195.429    348.89966   -46544.329    1.2284484 
   34650    28.370398   -5.0714766    123161.15   -46199.533    346.30091   -46545.834    1.2295332 
   34700    28.433371    15.838465    123175.58   -46204.609    347.06958   -46551.679    1.2270833 
   34750    28.397532   -4.1039786    123174.52   -46211.035    346.63212   -46557.668    1.2210707 
   34800    27.668155    10.390786    123160.31   -46210.038    337.72904   -46547.767    1.2296985 
   34850    27.618036    50.235507    123168.69   -46206.591    337.11727   -46543.708    1.2272751 
   34900    28.277957   -30.890901    123175.36   -46205.007    345.17254   -46550.179    1.2354974 
   34950    28.139685   -26.605289    123169.12   -46206.947    343.48474   -46550.432    1.2297114 
   35000    27.869742   -28.959893    123172.31   -46207.034     340.1897   -46547.223    1.2313074 
   35050    28.234404    3.3761952    123182.52   -46201.936    344.64092   -46546.577    1.2251077 
   35100    28.460725    12.405818    123197.91   -46204.092    347.40349   -46551.495    1.2219875 
   35150    28.190734    16.030076    123215.62   -46204.957    344.10785   -46549.065    1.2267499 
   35200    28.087591   -39.656067     123187.7   -46199.876    342.84885   -46542.724    1.2368007 
   35250    28.163586    68.652911    123145.41   -46202.382    343.77648   -46546.158    1.2431691 
   35300    27.997916   -5.8536076    123167.58   -46203.378    341.75424   -46545.133    1.2289406 
   35350     28.15602    19.175353    123176.98   -46205.899    343.68413   -46549.583    1.2238132 
   35400    27.989466  -0.35090411    123201.69   -46208.266     341.6511   -46549.917    1.2234631 
   35450    27.968468     25.21438     123172.1   -46208.428    341.39479   -46549.823    1.2261351 
   35500    27.799812   -2.0482367    123189.04   -46209.414    339.33611    -46548.75    1.2352418 
   35550    28.115747    14.213899    123172.43   -46205.213    343.19253   -46548.406     1.236499 
   35600    27.755195    65.392216    123190.39     -46207.3    338.79148   -46546.091    1.2185491 
   35650    27.894862    64.077751    123184.74    -46208.45    340.49633   -46548.947    1.2164303 
   35700    28.359669   -15.765114    123173.39   -46203.091    346.16995   -46549.261    1.2281137 
   35750    28.717411   -3.3228741    123167.22   -46197.158     350.5367   -46547.694      1.23403 
   35800    28.815417    16.933239    123187.99   -46190.516      351.733   -46542.249    1.2326122 
   35850    28.517241   -40.945525    123196.37   -46194.141    348.09334   -46542.234    1.2312005 
   35900    28.218092    90.506121    123211.44   -46200.506     344.4418   -46544.948    1.2314153 
   35950    27.874441   -69.905669    123208.85   -46205.976    340.24706   -46546.223    1.2304501 
   36000    27.764457   -14.185243    123215.33   -46207.244    338.90455   -46546.148    1.2281999 
   36050     28.03725   -46.990251     123172.2    -46207.74    342.23437   -46549.974     1.233558 
   36100    27.743081    16.016474    123174.54   -46211.187    338.64362   -46549.831    1.2284085 
   36150     27.91331     19.43982    123194.44   -46211.703    340.72151   -46552.424    1.2303175 
   36200     28.01973   -27.106808    123170.03   -46208.746    342.02051   -46550.766    1.2275263 
   36250    27.519521   -17.061247    123173.49   -46217.205    335.91476    -46553.12    1.2211735 
   36300    27.871152    2.6611085    123187.48   -46208.787     340.2069   -46548.994    1.2274854 
   36350    27.812455   -19.788738    123196.41    -46211.26    339.49043   -46550.751    1.2385456 
   36400    27.706701    51.390704    123200.11    -46210.66    338.19956    -46548.86     1.235844 
   36450    27.511906   -16.805917    123205.96   -46214.405     335.8218   -46550.227    1.2254418 
   36500    27.316075    36.503261    123200.11   -46210.867    333.43141   -46544.298    1.2174421 
   36550    27.996175   -82.999302    123200.46   -46209.671    341.73299   -46551.404    1.2194451 
   36600    27.945148    61.319346    123220.25   -46207.603    341.11013   -46548.713    1.2329579 
   36650    28.004478   -34.961827    123189.21   -46209.063    341.83435   -46550.897     1.241773 
   36700    28.121934   -7.2068161    123171.24   -46212.667    343.26806   -46555.936    1.2358056 
   36750    27.500389    24.374177    123179.93   -46214.866    335.68122   -46550.547    1.2373195 
   36800    27.931133   -72.391385    123167.82   -46218.124    340.93906   -46559.063    1.2413569 
   36850    27.788288    13.451709    123176.76   -46216.448    339.19544   -46555.643    1.2350559 
   36900    27.988962    -7.458014    123196.77   -46212.631    341.64494   -46554.276     1.225626 
   36950    27.830997   -14.532319    123207.59   -46213.224    339.71676   -46552.941    1.2206704 
   37000    27.446735    26.371394    123190.84   -46211.313    335.02629    -46546.34    1.2282897 
   37050    27.519957    1.8473788    123219.91    -46215.52    335.92007    -46551.44    1.2217086 
   37100    27.275575    21.673772       123210   -46213.817    332.93704   -46546.754    1.2238077 
   37150    27.232561   -24.819489    123225.42   -46213.398    332.41199    -46545.81    1.2183398 
   37200    27.864828   -7.3273761    123184.05   -46214.881    340.12972   -46555.011    1.2299247 
   37250     27.60797    26.717764    123184.57   -46214.616     336.9944    -46551.61     1.240106 
   37300    27.948266    -28.97699    123205.74   -46214.814    341.14819   -46555.962    1.2424953 
   37350    27.440089   -23.861787    123199.93   -46211.732    334.94517   -46546.677    1.2486891 
   37400    27.945075    26.962755    123212.19   -46217.944    341.10924   -46559.053    1.2440764 
   37450    27.721981   -11.622602    123211.71   -46213.792    338.38606   -46552.178    1.2284314 
[...]
   90800    28.206602    1.7672126    123540.03   -46312.643    344.30155   -46656.945  0.075117678 
   90850     27.77102    -63.42099    123583.11   -46314.428    338.98465   -46653.413  0.075480302 
   90900     27.42499    8.6528488    123568.14   -46312.964    334.76087   -46647.725  0.073760491 
   90950    27.747025    32.541121    123520.85   -46313.438    338.69176   -46652.129  0.074590943 
   91000    28.107134    69.598165    123476.09   -46312.681    343.08741   -46655.769  0.075929732 
   91050    28.132144   -8.6031876    123504.91   -46315.737    343.39268    -46659.13  0.074682679 
   91100    28.051466   -10.317839    123546.95    -46313.81     342.4079   -46656.218  0.074275819 
   91150    27.821793   -53.995708    123537.74   -46313.236    339.60441    -46652.84  0.074945339 
   91200    27.489263    55.124138    123472.94   -46314.022    335.54541   -46649.568  0.077871598 
   91250    27.911941    67.851244    123458.69   -46312.656     340.7048   -46653.361  0.077836617 
   91300    27.976399    40.970105    123517.87   -46312.143    341.49159   -46653.635  0.076857074 
   91350    27.865409   -78.895005    123604.28   -46313.904    340.13681   -46654.041  0.078175825 
   91400    28.029314   -3.3941769    123597.84   -46313.519     342.1375   -46655.656  0.077136638 
   91450    27.677946   -1.3773489    123540.22   -46313.861    337.84856   -46651.709    0.0788689 
   91500    27.417842    69.280921    123454.61   -46314.813    334.67362   -46649.486  0.077250639 
   91550     28.11315    16.463914    123449.14   -46312.831    343.16084   -46655.992  0.075641866 
   91600    27.843863    -26.61746    123522.94   -46314.186    339.87381    -46654.06  0.076336543 
   91650    27.631938    14.403511     123596.7   -46312.729    337.28697   -46650.016  0.076002388 
   91700    28.168397   -42.320192    123606.22   -46313.256     343.8352   -46657.092  0.076896455 
   91750    27.511564    33.472394    123518.02    -46312.72    335.81762   -46648.538  0.079939986 
   91800    28.094329     78.76539    123460.96   -46311.799     342.9311   -46654.731  0.081669123 
   91850    27.874857    7.3526156    123486.94   -46312.736    340.25213   -46652.988  0.079332146 
   91900    28.124077   -27.913945    123525.77   -46312.337    343.29422   -46655.631  0.078783931 
   91950    27.948154    -32.14502    123538.35   -46312.667    341.14682   -46653.813  0.076778009 
   92000    28.279661   -30.012351    123528.53   -46313.182    345.19333   -46658.375  0.074831584 
   92050    27.441177    44.658084    123535.49   -46315.428    334.95846   -46650.386  0.075668314 
   92100    28.354081    3.2041921    123552.05   -46314.237    346.10175   -46660.339  0.078668113 
   92150    28.123606   -52.830809       123529   -46315.808    343.28847   -46659.097  0.080704468 
   92200    27.908166    78.414898    123462.24    -46315.12    340.65871   -46655.779  0.078240163 
   92250    27.933125    41.358459    123461.69   -46312.954    340.96338   -46653.917   0.08007381 
   92300    27.564494    7.9165214    123495.55    -46312.39    336.46371   -46648.854  0.081205952 
   92350    27.770806   -12.780077    123514.12   -46311.281    338.98204   -46650.264  0.079735937 
   92400     27.84157   -56.163847    123522.99   -46311.063    339.84581   -46650.908  0.079145301 
   92450    28.282979    115.57829    123488.42   -46311.369    345.23384   -46656.603  0.078267327 
   92500     27.62899   -36.490254    123549.65   -46313.418    337.25098   -46650.669  0.079173437 
   92550    27.701862   -58.509116    123578.13   -46314.896    338.14048   -46653.036  0.079156508 
   92600    28.037193   -87.411042    123516.83   -46316.312    342.23367   -46658.546  0.079071855 
   92650    28.269031     63.94663    123392.73   -46314.204    345.06359   -46659.268  0.078056591 
   92700    27.819197    80.513423    123391.93   -46313.622    339.57273   -46653.195  0.077020051 
   92750    28.064982   -45.585011    123539.98   -46313.412    342.57288   -46655.985  0.078494327 
   92800    27.747038     -119.814    123661.42   -46313.934    338.69192   -46652.626   0.07799147 
   92850    27.932059   -28.718609     123594.3   -46311.091    340.95037   -46652.041  0.075578333 
   92900    28.314626    48.248317     123445.2    -46310.94    345.62013    -46656.56  0.073843027 
   92950    27.771012    139.79607    123397.79   -46309.305    338.98456   -46648.289   0.07867358 
   93000    28.054776   -40.580435    123543.29   -46307.686     342.4483   -46650.135  0.078181048 
   93050    28.056529   -72.717647     123652.2   -46305.112     342.4697   -46647.582  0.078632756 
   93100    28.177197   -68.405417    123588.75   -46306.124    343.94262   -46650.067   0.07729095 
   93150    27.908516     61.07554    123439.24   -46307.306    340.66299   -46647.969  0.077367269 
   93200    27.447682    150.28804    123360.71   -46307.698    335.03786   -46642.736  0.078597826 
   93250    27.813212   -9.8942293    123476.16   -46309.339    339.49967   -46648.839  0.077144119 
   93300     28.01508   -46.399086    123618.97   -46308.198    341.96376   -46650.162  0.077663238 
   93350    28.357895   -104.12648    123661.44   -46308.438    346.14829   -46654.586  0.076225335 
   93400    27.807769   -22.677591    123538.56   -46307.882    339.43323   -46647.316  0.075501566 
   93450    28.194029    142.69955    123386.33   -46307.476    344.14808   -46651.624   0.07515454 
   93500    27.829704    83.490718    123391.53   -46306.554    339.70097   -46646.255  0.074783455 
   93550    27.592208   -23.119413    123520.41   -46307.069    336.80201   -46643.871  0.078184659 
   93600    28.118088   -119.33497    123628.57   -46306.075    343.22112   -46649.296  0.079712635 
   93650    28.354456   -57.828093    123572.38   -46304.128    346.10631   -46650.235  0.078195235 
   93700    28.376502    24.040018    123459.05   -46302.514    346.37542   -46648.889  0.077191777 
   93750     27.99968     78.32948    123397.23   -46303.802    341.77577   -46645.578  0.074663483 
   93800    28.584731    8.7878959    123475.76   -46306.378    348.91715   -46655.295  0.072203049 
   93850    28.159208   -53.443879    123608.98   -46305.635    343.72304   -46649.358  0.074499262 
   93900    28.424896   -61.829738    123632.59   -46306.538    346.96614   -46653.504  0.073232754 
   93950    28.197502     22.29412    123520.33   -46305.897    344.19047   -46650.088  0.073401472 
   94000    28.740914    82.834326    123431.73   -46306.547    350.82359    -46657.37  0.073559615 
   94050    28.050571     49.76686    123456.23   -46310.684    342.39697   -46653.081  0.074790452 
   94100    28.038562   -32.778009    123565.82   -46312.466    342.25038   -46654.716  0.074414165 
   94150    27.939649   -86.270514    123662.78   -46313.393    341.04301   -46654.436  0.075933525 
   94200    27.569379   -65.926826    123600.51   -46313.731    336.52334   -46650.254  0.076705395 
   94250    28.174608    102.76342    123437.71   -46311.371    343.91102   -46655.282  0.073294717 
   94300    27.661175    87.383285    123400.19   -46311.442    337.64385   -46649.086  0.072253876 
   94350    28.120724    20.767143    123509.53   -46311.701    343.25329   -46654.954  0.071057069 
   94400    27.976439   -70.570452    123632.44   -46312.271    341.49208   -46653.763  0.073407175 
   94450    27.689079   -67.476785    123640.89   -46312.511    337.98445   -46650.496  0.076700831 
   94500    27.505263   -19.379135    123524.99   -46312.264    335.74072   -46648.004  0.075678029 
   94550    27.933721    116.31034    123373.02   -46312.815    340.97065   -46653.785  0.074295347 
   94600    28.162088    93.924366    123370.62   -46311.715    343.75819   -46655.473  0.074594621 
   94650     28.05522   -42.539498    123524.79   -46313.127    342.45372   -46655.581  0.076731826 
   94700    28.232303   -103.52839     123668.9   -46312.196    344.61526   -46656.811  0.078301714 
   94750     27.99503    -102.9096    123644.55    -46313.77    341.71901   -46655.489   0.07821102 
   94800    27.811206    36.028961    123463.59   -46317.016    339.47518   -46656.492  0.076802839 
   94850    28.187391    119.16166    123337.09   -46317.457    344.06705   -46661.524  0.079623914 
   94900    27.686688    60.597227    123411.11   -46318.268    337.95526   -46656.223  0.079997316 
   94950    27.868083   -42.248196    123602.52   -46317.372    340.16945   -46657.541  0.080237535 
   95000    27.665981   -99.767946    123689.55   -46317.546    337.70251   -46655.249  0.079897966 
   95050    27.743826   -27.676962    123549.33   -46320.176    338.65271   -46658.828  0.080293242 
   95100    27.366938    91.067244    123336.69   -46318.731    334.05226   -46652.783    0.0786537 
   95150     27.85444    156.51969    123286.12   -46319.929    340.00292   -46659.932  0.077054214 
   95200    28.255072    16.549997    123495.06   -46317.875     344.8932   -46662.768  0.078671307 
   95250    27.738823   -174.63067    123713.74   -46320.073    338.59165   -46658.665  0.077296083 
   95300    27.758296   -126.65317    123652.83   -46319.383    338.82935   -46658.212  0.076229885 
   95350    27.489022    48.758925    123378.62   -46321.714    335.54247   -46657.256  0.074389285 
   95400    27.738386    196.31555    123216.61   -46319.124    338.58631    -46657.71  0.074877633 
   95450    27.685883    44.567869    123391.25   -46318.997    337.94543   -46656.943  0.077046505 
   95500    28.038784   -90.934036    123672.72    -46317.28     342.2531   -46659.533  0.075574774 
   95550    27.756377   -206.99589    123784.52   -46316.562    338.80591   -46655.368  0.077480214 
   95600    28.055427   -39.141856     123557.3   -46315.573    342.45624   -46658.029  0.078426416 
   95650    27.499454     212.2605    123268.49   -46316.024    335.66981   -46651.694  0.075262697 
   95700    28.125752     139.9936    123296.76   -46314.825    343.31466    -46658.14  0.076491075 
   95750    28.409627    -6.245986    123570.11   -46314.357    346.77976   -46661.137  0.077767604 
   95800    27.602505   -148.55112    123781.47   -46312.008    336.92769   -46648.936  0.078019518 
   95850    27.824082   -96.453822    123693.47   -46313.868    339.63235     -46653.5  0.075128752 
   95900    28.012867    95.112221    123442.77   -46313.535    341.93674   -46655.472  0.079416306 
   95950    28.003785    106.67125    123351.94   -46312.963    341.82588   -46654.789  0.079974184 
   96000    28.106076   -32.146064    123474.14   -46311.781    343.07448   -46654.855  0.076655428 
   96050    27.818315   -48.850128    123624.51   -46311.767    339.56196   -46651.329  0.078297352 
   96100    27.989046   -67.977887    123675.43   -46311.816    341.64597   -46653.462  0.077841971 
   96150    27.905118   -57.297136    123557.88   -46314.733    340.62151   -46655.355  0.077608925 
   96200    28.098383    53.382985    123375.72   -46314.505    342.98058   -46657.486  0.077404987 
   96250    27.645263    154.70781    123344.17   -46314.367    337.44961   -46651.817  0.078282243 
   96300    27.910443   -7.1315522    123536.34   -46314.037     340.6865   -46654.723  0.078395554 
   96350    27.981325   -113.85428    123675.16   -46312.893    341.55173   -46654.445  0.077874793 
   96400    27.827304   -56.901787    123611.65   -46314.023    339.67168   -46653.695  0.077108685 
   96450    27.909775    25.221672    123491.87   -46314.909    340.67835   -46655.588  0.074781388 
   96500    27.764403    98.813095     123437.3   -46313.011    338.90388   -46651.915  0.075483731 
   96550     27.68106    13.611113    123494.28   -46313.871    337.88657   -46651.758  0.078916367 
   96600    27.919803   -73.541762    123590.29   -46315.306    340.80076   -46656.107  0.078153316 
   96650    27.912133   -8.5952808    123586.95   -46317.696    340.70713   -46658.403  0.077591287 
   96700    27.683782    3.9248638     123505.3   -46318.483    337.91979   -46656.402  0.078932711 
   96750    27.763649    105.39484    123436.68   -46318.745    338.89468    -46657.64  0.078106224 
   96800    27.403536  -0.97893306    123467.88   -46320.097      334.499   -46654.596  0.077113586 
   96850    27.900059    24.296484    123565.05   -46322.425    340.55976   -46662.985  0.078169724 
   96900    27.350562   -70.348255       123660   -46321.129    333.85237   -46654.981  0.079519491 
   96950    27.244723   -96.403556    123624.25   -46320.554    332.56046   -46653.115   0.07917674 
   97000    28.050545    79.163913    123462.26   -46318.792    342.39665   -46661.189  0.075171074 
   97050    27.961809    70.982688     123397.6   -46317.426     341.3135    -46658.74  0.075889061 
   97100    28.190975   -13.604114    123481.29   -46316.884     344.1108   -46660.995  0.076036233 
   97150    27.483686    14.850517    123556.49   -46318.094    335.47734   -46653.571  0.079416357 
   97200    27.605001   -58.531756    123588.85   -46317.735    336.95816   -46654.693  0.081660179 
   97250    27.793306     33.06356    123508.02   -46316.391    339.25669   -46655.648  0.079025475 
   97300    27.806813    58.465479    123443.24   -46315.875    339.42156   -46655.296  0.079758578 
   97350    27.501424    25.585499    123496.95   -46314.149    335.69385   -46649.843  0.077847109 
   97400    28.384685   -43.917339    123572.75   -46313.677    346.47531   -46660.152  0.078944551 
   97450    28.715607    -65.38408    123576.45   -46311.405    350.51468    -46661.92  0.080585151 
   97500    28.031628    58.200585    123494.99   -46311.861    342.16574   -46654.027  0.080680293 
   97550    27.623437    48.749088    123444.41   -46312.193     337.1832   -46649.376  0.079074235 
   97600    28.017098   -34.793983    123476.03   -46311.279    341.98838   -46653.267  0.078211804 
   97650    27.867142     19.53415    123513.65   -46310.163    340.15797   -46650.321  0.079113052 
   97700    28.252876    14.470559    123558.53   -46309.671    344.86639   -46654.538  0.078588795 
   97750    28.152112   -109.21732    123604.89   -46309.345    343.63642   -46652.981  0.079512855 
   97800    27.638325    9.3763737    123528.69   -46310.948    337.36493   -46648.313  0.078607702 
   97850    27.597935    67.543556    123430.69   -46311.885     336.8719   -46648.756  0.075739396 
   97900    27.668101    94.031924    123455.33   -46310.096    337.72838   -46647.824  0.075922983 
   97950    28.043953    -101.0617    123551.45   -46310.124    342.31619    -46652.44   0.07860267 
   98000    28.368591   -1.8188962    123530.63   -46308.473    346.27886   -46654.752  0.079466884 
   98050    28.294257   -34.320146    123478.64   -46309.339     345.3715   -46654.711    0.0798855 
   98100    27.873641    10.187944    123429.17   -46309.741    340.23729   -46649.978   0.07955536 
   98150    28.735995    47.309387    123422.68   -46310.328    350.76354   -46661.092  0.077267207 
   98200    28.424633   -46.799574    123502.54   -46309.675    346.96292   -46656.638  0.076671859 
   98250    28.280808    2.6814178    123586.45   -46307.044    345.20734   -46652.251  0.075220339 
   98300     27.82065   -56.704244    123573.08   -46304.568    339.59046   -46644.159  0.077733805 
   98350    28.107664    -4.606769    123476.23   -46304.641    343.09387   -46647.735  0.077721101 
   98400    28.271883    107.78112    123386.72   -46303.255     345.0984   -46648.354   0.07870962 
   98450    28.359812    84.922262    123424.97   -46306.013     346.1717   -46652.185  0.078103146 
   98500    28.038346   -74.799025    123587.44    -46307.26    342.24775   -46649.508  0.077110281 
   98550    28.335417    -75.02224    123683.48   -46308.671    345.87392   -46654.545   0.07764661 
   98600    28.442411   -15.118245    123586.68   -46307.886    347.17993   -46655.066  0.077929636 
   98650    27.827136    97.904035    123389.02   -46306.046    339.66963   -46645.716  0.079159419 
   98700    28.245551    106.79824     123336.3   -46304.802    344.77697   -46649.579   0.07568096 
   98750    28.587851    39.371135    123479.14   -46304.036    348.95524   -46652.991  0.075132964 
   98800     28.67205   -107.41961    123657.44   -46304.428      349.983   -46654.411  0.076683716 
   98850    28.047732   -99.207484    123637.55   -46306.616    342.36232   -46648.979  0.077390363 
   98900     28.70789    20.075736    123462.36   -46306.084    350.42049   -46656.505  0.075317613 
   98950    28.352611    141.47026    123364.85   -46305.941     346.0838   -46652.024  0.080108129 
   99000    28.067599   -1.5129317    123453.69   -46304.712    342.60482   -46647.317  0.080909984 
   99050    28.295393    23.454916    123593.61   -46306.652    345.38537   -46652.037  0.079415122 
   99100    28.135331   -105.47752    123676.06   -46308.419    343.43159    -46651.85  0.078276612 
   99150    28.501404    23.474651    123584.02   -46309.537    347.90002   -46657.437   0.07582273 
   99200    28.055008    49.125677     123465.4   -46311.047    342.45113   -46653.498  0.075246294 
   99250    27.847848    119.18844    123390.49   -46313.382    339.92245   -46653.304  0.077580862 
   99300    27.911689    18.378464    123467.96   -46313.808    340.70171    -46654.51  0.079447981 
   99350    28.036821   -109.80375    123597.44   -46315.186    342.22913   -46657.415  0.080559526 
   99400    27.687657   -84.321584    123581.51   -46319.107     337.9671   -46657.074  0.079757401 
   99450    27.712967    119.88585    123472.86   -46318.157    338.27604   -46656.433  0.075360168 
   99500     27.71416    68.432244    123458.29   -46318.886     338.2906   -46657.176  0.075218623 
   99550    27.649996     14.82309    123513.92   -46319.513    337.50739   -46657.021  0.077040635 
   99600    27.354603   -2.7898584    123584.96   -46321.065     333.9017   -46654.966  0.078197062 
   99650    27.415047   -25.550727    123583.49   -46318.535     334.6395   -46653.174  0.077218815 
   99700    27.508409   -6.0259078    123473.14   -46316.888    335.77911   -46652.667  0.077537725 
   99750    27.531036    94.231319    123415.09   -46317.414    336.05532   -46653.469  0.076833608 
   99800    27.345077   -36.262587    123508.08   -46317.914    333.78542   -46651.699  0.081194362 
   99850     27.24949   -95.646767    123611.31   -46319.523    332.61865   -46652.141  0.080251371 
   99900    27.694002   -76.983519    123616.69   -46319.609    338.04454   -46657.654  0.079612561 
   99950    27.597626   -27.258863    123485.91   -46317.937    336.86814   -46654.805  0.077393802 
  100000    27.905844    174.20949    123352.84   -46318.569    340.63037     -46659.2  0.078707534 
Loop time of 192.653 on 10 procs for 100000 steps with 4096 atoms

Performance: 224.238 ns/day, 0.107 hours/ns, 519.069 timesteps/s
98.9% CPU use with 10 MPI tasks x no OpenMP threads

MPI task timing breakdown:
Section |  min time  |  avg time  |  max time  |%varavg| %total
---------------------------------------------------------------
Pair    | 154.79     | 163.12     | 179.23     |  55.7 | 84.67
Neigh   | 0.13878    | 0.147      | 0.15411    |   1.3 |  0.08
Comm    | 7.234      | 20.151     | 26.268     | 118.1 | 10.46
Output  | 0.13169    | 0.14066    | 0.21851    |   6.9 |  0.07
Modify  | 5.1002     | 8.378      | 12.952     | 121.1 |  4.35
Other   |            | 0.718      |            |       |  0.37

Nlocal:    409.6 ave 418 max 400 min
Histogram: 1 1 0 2 2 0 0 1 0 3
Nghost:    1343.4 ave 1370 max 1329 min
Histogram: 1 4 1 1 0 1 0 1 0 1
Neighs:    0 ave 0 max 0 min
Histogram: 10 0 0 0 0 0 0 0 0 0
FullNghs:  13384.8 ave 13880 max 12793 min
Histogram: 1 0 1 1 1 2 0 1 2 1

Total # of neighbors = 133848
Ave neighs/atom = 32.6777
Neighbor list builds = 186
Dangerous builds = 0
write_data      data.liquid_box
write_restart   prod.${NAME}-p1t${TEMP}.rst
write_restart   prod.liquid_box_228K-p1t${TEMP}.rst
write_restart   prod.liquid_box_228K-p1t28.rst

Total wall time: 0:09:37
