
# Create simulation box and atoms
lattice		    sc 1
Lattice spacing in x,y,z = 1 1 1
region 		    all block 0 50 0 50 0 50 units box
create_box 	    1 all
Created orthogonal box = (0 0 0) to (50 50 50)
  2 by 2 by 2 MPI processor grid

create_atoms	1 random 4096 83782 all
Created 4096 atoms
  Time spent = 0.000692368 secs

mass		    1 18.15

# Define potential

pair_style 	    sw
pair_coeff	    * * mW_real.sw mW
Reading potential file mW_real.sw with DATE: 2019-02-27

# Run minimization and output files

minimize 	    1.0e-8 1.0e-8 10000 1000
WARNING: Using 'neigh_modify every 1 delay 0 check yes' setting during minimization (../min.cpp:168)
Neighbor list info ...
  update every 1 steps, delay 0 steps, check yes
  max neighbors/atom: 2000, page size: 100000
  master list distance cutoff = 6.3065
  ghost atom cutoff = 6.3065
  binsize = 3.15325, bins = 16 16 16
  1 neighbor lists, perpetual/occasional/extra = 1 0 0
  (1) pair sw, perpetual
      attributes: full, newton on
      pair build: full/bin/atomonly
      stencil: full/bin/3d
      bin: standard
Per MPI rank memory allocation (min/avg/max) = 4.222 | 4.227 | 4.232 Mbytes
Step Temp E_pair E_mol TotEng Press 
       0            0    3558105.7            0    3558105.7    2737058.2 
     717            0   -46184.156            0   -46184.156   -1122.0106 
Loop time of 2.73868 on 8 procs for 717 steps with 4096 atoms

98.6% CPU use with 8 MPI tasks x no OpenMP threads

Minimization stats:
  Stopping criterion = max force evaluations
  Energy initial, next-to-last, final = 
         3558105.72845     -46183.8572089      -46184.155707
  Force two-norm initial, final = 3.20802e+07 3.97917
  Force max component initial, final = 1.17575e+07 0.989472
  Final line search alpha, max atom move = 0.0501042 0.0495767
  Iterations, force evaluations = 717 1000

MPI task timing breakdown:
Section |  min time  |  avg time  |  max time  |%varavg| %total
---------------------------------------------------------------
Pair    | 1.6287     | 2.0895     | 2.4537     |  20.5 | 76.30
Neigh   | 0.030291   | 0.037369   | 0.042175   |   1.9 |  1.36
Comm    | 0.21644    | 0.58335    | 1.0476     |  39.3 | 21.30
Output  | 0          | 0          | 0          |   0.0 |  0.00
Modify  | 0          | 0          | 0          |   0.0 |  0.00
Other   |            | 0.02845    |            |       |  1.04

Nlocal:    512 ave 534 max 474 min
Histogram: 1 0 0 0 2 0 2 0 1 2
Nghost:    1239.88 ave 1272 max 1214 min
Histogram: 1 0 1 2 1 1 1 0 0 1
Neighs:    0 ave 0 max 0 min
Histogram: 8 0 0 0 0 0 0 0 0 0
FullNghs:  16563.2 ave 17813 max 14504 min
Histogram: 1 0 0 0 2 0 2 0 1 2

Total # of neighbors = 132506
Ave neighs/atom = 32.3501
Neighbor list builds = 41
Dangerous builds = 0
write_restart	min.${NAME}.rst
write_restart	min.liquid_msd.rst
write_data      min.${NAME}.data
write_data      min.liquid_msd.data

# Equilibration of molecular water

# Add velocity/set timestep

velocity	    all create ${TEMP} 120598 rot yes dist gaussian
velocity	    all create 298 120598 rot yes dist gaussian
timestep	    5.0

# Define output
compute			1 all msd

thermo	    	50
thermo_style	custom step temp press vol etotal ke pe c_1[4]

# Neighbor lists

neigh_modify    delay 0 every 1 check yes

# Set fixes

fix             1 all momentum 10 linear 1 1 1 rescale
fix             2 all nve
fix             3 all temp/csvr ${TEMP} ${TEMP} 500.0 928347
fix             3 all temp/csvr 298 ${TEMP} 500.0 928347
fix             3 all temp/csvr 298 298 500.0 928347
fix             4 all press/berendsen iso ${PRES} ${PRES} 1000.0 modulus 20000
fix             4 all press/berendsen iso 1 ${PRES} 1000.0 modulus 20000
fix             4 all press/berendsen iso 1 1 1000.0 modulus 20000

# Run 1 ns equilibration

#dump		    1 all xtc 2000 eq.${NAME}-p1t${TEMP}.xtc
dump		    1 all atom 1000 eq.${NAME}-p1t${TEMP}.dump
dump		    1 all atom 1000 eq.liquid_msd-p1t${TEMP}.dump
dump		    1 all atom 1000 eq.liquid_msd-p1t298.dump

reset_timestep  0

run	            200000
Per MPI rank memory allocation (min/avg/max) = 4.493 | 4.498 | 4.502 Mbytes
Step Temp Press Volume TotEng KinEng PotEng c_1[4] 
       0          298    208.22118       125000   -42546.643    3637.5123   -46184.156            0 
      50    177.42256   -339.98522    125235.66   -41671.647    2165.6938   -43837.341   0.29329053 
     100    199.83298    70.228457    125401.56    -41028.47    2439.2447   -43467.714   0.51338321 
     150    219.09144   -68.289795    125383.52   -40503.419    2674.3215    -43177.74   0.75170908 
     200    230.50955   -114.07481    125360.69   -40082.225    2813.6957   -42895.921    1.0418467 
     250    240.68841    29.811437    125212.17     -39756.2    2937.9431   -42694.143     1.330337 
     300    250.52673   -189.24356    125072.59   -39444.754    3058.0338   -42502.787    1.6541599 
     350     259.3353   -220.41947    124788.54   -39221.552    3165.5549   -42387.107    2.0351046 
     400    264.36991   -79.080607    124571.53     -39021.7    3227.0094   -42248.709    2.5551561 
     450    272.71348   -70.789384    124467.75   -38817.197    3328.8545   -42146.052    3.0385447 
     500    274.24724   -218.67868    124210.34   -38683.099    3347.5762   -42030.676    3.5773486 
     550    282.08383   -221.57365    123983.58   -38467.594    3443.2329   -41910.827    4.1532787 
     600    285.32028   -231.73528    123802.04   -38314.511    3482.7384    -41797.25    4.7172599 
     650    286.06479    62.885467    123782.86   -38237.453    3491.8261   -41729.279      5.34987 
     700     288.6018   -157.52005    123610.81   -38167.655     3522.794   -41690.449    6.0839887 
     750    289.85762   -90.596281    123486.24   -38097.659     3538.123   -41635.782    6.7761125 
     800    288.16694   -48.765223     123683.4   -37960.701    3517.4859   -41478.187    7.3598337 
     850    289.58126   -132.41031    123586.69    -37934.11    3534.7497    -41468.86    8.1083298 
     900    298.18076   -32.124569    123508.72   -37875.898    3639.7187   -41515.616    8.9237561 
     950    291.34334    31.042001    123512.09   -37908.924    3556.2583   -41465.182    9.7718441 
    1000    287.29488    188.97921    123480.74   -37898.645    3506.8411   -41405.486    10.491538 
    1050    292.73119   -48.311436    123457.87   -37884.644     3573.199   -41457.843    11.314223 
    1100    298.39638   -135.97205    123386.22   -37808.526    3642.3507   -41450.876     12.22534 
    1150    292.20795    5.7369804    123418.32   -37836.281    3566.8122   -41403.093    13.107138 
    1200     295.3102   -65.156516    123330.63   -37763.578    3604.6795   -41368.257    13.854783 
    1250    298.94653    114.24827    123142.77   -37748.371     3649.066   -41397.437    14.729358 
    1300    299.89008   -5.7678282     123088.8   -37658.632    3660.5834   -41319.215     15.51636 
    1350    299.14457   -53.783607    123012.76    -37740.64    3651.4834   -41392.123     16.25615 
    1400    297.76809   -35.825342     122920.3   -37730.411    3634.6815   -41365.093    17.139021 
    1450    294.81517   -182.66215    122753.32   -37792.797     3598.637   -41391.434    18.015555 
    1500    294.43194    -85.02059    122794.16   -37755.795    3593.9591   -41349.754    18.819024 
    1550    295.88743    36.872201    122721.03   -37704.105    3611.7254   -41315.831    19.602594 
    1600     296.7615    98.283582    122867.72   -37688.999    3622.3947   -41311.393    20.486003 
    1650    297.08346    263.82563    122912.63   -37659.575    3626.3247     -41285.9    21.475426 
    1700     295.3043   -100.09401    123158.68   -37685.941    3604.6075   -41290.549    22.504859 
    1750    296.31457   -226.65174    123020.59   -37632.349    3616.9392   -41249.288    23.471869 
    1800    304.50091   -178.08801    122656.97   -37634.691    3716.8651   -41351.556    24.439843 
    1850     300.8065    25.040991    122625.69   -37616.303    3671.7696   -41288.073     25.46765 
    1900    303.33002   -22.179148    122716.93   -37578.297    3702.5727   -41280.869    26.399007 
    1950     303.6098    47.645054    122482.29   -37545.881    3705.9878   -41251.869    27.410044 
    2000    303.27316    151.00246    122633.36   -37535.975    3701.8787   -41237.853     28.29468 
    2050    295.19549   -34.957485    122721.94   -37648.324    3603.2793   -41251.603    29.129523 
    2100    297.84534   0.27470809    122806.03   -37668.842    3635.6244   -41304.466    30.049593 
    2150    300.31127    6.8345253    122821.08   -37644.358    3665.7247   -41310.083    31.007772 
    2200    301.65749    94.557204    122923.55   -37604.701    3682.1572   -41286.858    31.737581 
    2250     299.9506    280.26142    122805.15   -37589.335    3661.3221   -41250.657    32.819861 
    2300    301.28392   -82.958428     122862.9   -37576.289    3677.5972   -41253.886    33.862722 
    2350    296.83496     164.5833    122931.86   -37587.626    3623.2914   -41210.917    34.873388 
    2400     298.6291    141.64523     123048.2   -37594.205    3645.1914   -41239.396    35.839472 
    2450     296.3907   -98.790984    123161.71   -37568.282    3617.8685   -41186.151    36.689856 
    2500    301.65851   -184.98273    122872.43   -37603.873    3682.1696   -41286.042    37.542688 
    2550    297.20979    138.55524    122824.81   -37569.188    3627.8667   -41197.055    38.286752 
    2600    298.75203    -343.9419     122703.1   -37626.097    3646.6919   -41272.789    39.261408 
    2650    300.43869    44.011433    122480.51   -37576.454      3667.28   -41243.734     40.30207 
    2700    295.02628   -238.61427    122637.12   -37628.902    3601.2139   -41230.116    41.171858 
    2750    299.69968   -66.516414    122403.48   -37582.132    3658.2593   -41240.392    42.175398 
    2800    306.22297   -112.27716    122545.53   -37532.205    3737.8854   -41270.091    43.113862 
    2850     303.8865    60.158193    122780.78   -37485.929    3709.3653   -41195.294    44.210812 
    2900    305.34851   -38.669721     122901.8   -37515.038    3727.2113   -41242.249    45.175767 
    2950    302.53111    110.29206    122926.56   -37548.557     3692.821   -41241.378    45.896218 
    3000    300.19087   -210.49926    122898.43   -37568.678     3664.255   -41232.933    46.792784 
    3050    291.17342    237.44676    122940.44   -37564.769    3554.1842   -41118.954    47.723191 
    3100    298.24137    304.50266    123048.65   -37545.441    3640.4586     -41185.9    48.583974 
    3150    304.12047   -71.133309    123034.28   -37540.994    3712.2214   -41253.216    49.497368 
    3200    299.07235    37.365677     123085.4   -37643.133    3650.6018   -41293.735    50.530883 
    3250    293.98481   -232.98492    123104.43   -37755.102    3588.5013   -41343.603    51.619094 
    3300    300.35836    109.94829    123104.88   -37737.566    3666.2994   -41403.866    52.703415 
    3350    290.40851   -70.200279    123243.02   -37706.208    3544.8474   -41251.055     53.73257 
    3400    295.42328   -250.30706     123022.8   -37669.095    3606.0598   -41275.155    54.598425 
    3450    298.29103    8.1508382    122877.32   -37626.337    3641.0647   -41267.402    55.433179 
    3500    295.08407    85.920001    122912.12   -37633.318    3601.9193   -41235.238    56.353916 
    3550     299.1754    174.87466    122861.75   -37630.954    3651.8598   -41282.814    57.223776 
    3600    297.12318    41.797739    122805.18   -37644.906    3626.8094   -41271.716    58.160034 
    3650    297.38455    15.957268    122806.47   -37645.172    3629.9999   -41275.172     59.10975 
    3700    301.91471   -14.300485    122750.36   -37599.061    3685.2969   -41284.357    60.017191 
    3750     301.0305   -78.626309    122865.94   -37571.653    3674.5038   -41246.157    61.013016 
    3800    302.57469    143.63485     122923.1   -37580.834    3693.3529   -41274.187    62.170032 
    3850    304.72481    47.960974    123163.21   -37553.537    3719.5982   -41273.135    63.017057 
    3900    301.27508    -132.1845    123160.33    -37597.71    3677.4893   -41275.199    63.817335 
    3950    301.20837    54.248937    123142.87   -37632.313     3676.675   -41308.988     64.70866 
    4000     305.5984   -82.504206    123121.01   -37640.003    3730.2616   -41370.265    65.743402 
    4050    294.82663   -60.474228     123172.9   -37700.474    3598.7768   -41299.251    66.423739 
    4100    297.40544   -217.86703    123011.66   -37677.255    3630.2548    -41307.51    67.037826 
    4150     299.2733   -213.96768     122901.4   -37626.599    3653.0548   -41279.653    67.857858 
    4200     299.3742    20.526411    122662.43   -37632.184    3654.2864    -41286.47    68.675819 
    4250    295.88917   -140.37783    122719.53   -37689.512    3611.7466   -41301.259    69.670457 
    4300    291.56826    140.25505    122712.34   -37759.525    3559.0039   -41318.528    70.680759 
    4350    299.60296    1.2445492    122883.42   -37616.498    3657.0787   -41273.577    71.512808 
    4400    296.79061    38.693955    122825.58   -37636.945      3622.75   -41259.695    72.242597 
    4450    295.64333   -135.49812    122826.59   -37656.935    3608.7458   -41265.681    72.829113 
    4500    297.13364    113.44407    122728.73     -37671.8    3626.9372   -41298.737    73.338892 
    4550    296.80595    280.75186    123077.37   -37709.874    3622.9372   -41332.811    74.246557 
    4600    297.19885    -7.686168    123059.56   -37711.763    3627.7331   -41339.496    75.126947 
    4650    295.80643   -198.22856    122862.53   -37682.088    3610.7366   -41292.825    76.045552 
    4700    297.41328    85.878718    122841.81   -37644.753    3630.3506   -41275.104    76.985362 
    4750    301.98123   -42.665735    122793.03   -37587.893    3686.1089   -41274.002    77.972957 
    4800    302.97323   -69.044327    122792.49   -37562.097    3698.2176   -41260.315     78.74565 
    4850    298.47466    74.266136     122737.2   -37587.687    3643.3062   -41230.993    79.731107 
    4900     305.7164     96.15006    122703.74   -37537.104     3731.702   -41268.806    80.875209 
    4950    302.71372    134.56444    122918.98   -37548.461    3695.0499   -41243.511    81.777436 
    5000    295.16104    33.840691    122988.75   -37656.096    3602.8588   -41258.955    82.509121 
    5050     297.9617   -321.93062    122745.65   -37613.955    3637.0449       -41251    83.404764 
    5100     299.4998    82.932092    122602.58   -37584.052    3655.8195   -41239.872    84.621027 
    5150     305.7319    194.51488    122708.69   -37556.125    3731.8912   -41288.016    85.755135 
    5200    294.97034   -243.91517    122766.35   -37654.694     3600.531   -41255.225    86.813744 
    5250     294.5225   -41.252999    122719.02   -37730.219    3595.0645   -41325.283    87.767923 
    5300    290.09815    13.849189    122725.54   -37715.388     3541.059   -41256.447    88.554814 
    5350    291.17392     209.1211    122727.29   -37752.021    3554.1904   -41306.211     89.47737 
    5400    300.07997   -136.88931    122763.65   -37677.346    3662.9013   -41340.248    90.672715 
    5450    299.69157   -12.504171    122657.29   -37677.802    3658.1603   -41335.962    91.451394 
    5500    297.17534   -153.05309    122749.11   -37663.094    3627.4462    -41290.54    92.221137 
    5550    292.59331    80.688386    122527.52    -37769.79     3571.516   -41341.306    92.864917 
    5600    295.88685     136.7998    122554.38   -37728.301    3611.7184    -41340.02    93.609385 
    5650    297.22967   -51.454577    122607.36   -37722.824    3628.1094   -41350.933    94.205052 
    5700    295.67694   -19.485433    122751.04   -37716.102    3609.1561   -41325.258     95.17971 
    5750    291.87654   -181.10392    122594.42   -37708.969    3562.7668   -41271.736    96.145415 
    5800    294.39567    260.07904    122613.29   -37638.938    3593.5163   -41232.455    97.183047 
    5850    294.22277   -79.030027    122529.35   -37704.789    3591.4059   -41296.195    97.996698 
    5900    297.53722   -4.7223064    122457.35   -37705.079    3631.8634   -41336.943     98.99556 
    5950    296.44436   -147.20885    122542.65   -37714.315    3618.5235   -41332.839    100.00786 
    6000    298.76858    196.40862    122437.02   -37675.865     3646.894   -41322.759    100.85813 
    6050    292.99119   -113.36519    122458.94   -37773.005    3576.3726   -41349.377    101.74957 
    6100    291.07931     65.61891    122642.74    -37759.02    3553.0355   -41312.055    102.61792 
    6150    291.05302    39.622646    122586.12    -37758.86    3552.7146   -41311.575     103.1328 
    6200    298.55837    231.89369    122703.33    -37742.94     3644.328   -41387.268    103.90607 
    6250    300.56953    50.998016    122769.55   -37666.148    3668.8771   -41335.025    104.82661 
    6300    294.77301     192.2548    122766.53   -37635.452    3598.1224   -41233.575    105.40553 
    6350    297.34934   -28.257279    122924.32   -37661.584    3629.5701   -41291.154    106.31962 
    6400    298.16152    14.549357    122936.42    -37674.38    3639.4839   -41313.864    107.17928 
    6450    294.13449   -83.100721    122945.66   -37723.024    3590.3283   -41313.352    107.97917 
    6500     294.6285     -125.127    122881.27   -37707.059    3596.3584   -41303.417    108.80305 
    6550    297.25911   -247.99018    122774.54   -37789.285    3628.4687   -41417.753    109.65945 
    6600    293.34999     125.0801     122636.1     -37734.1    3580.7524   -41314.853    110.21266 
    6650     296.4244   -16.289102    122709.96   -37746.849    3618.2799   -41365.129     111.1585 
    6700    291.16184   -222.15413    122677.11   -37774.251    3554.0428   -41328.294    112.01258 
    6750    299.64817   -19.463658    122638.72   -37759.288    3657.6306   -41416.919     112.8291 
    6800    294.42662   -73.744158    122716.16    -37723.34    3593.8941   -41317.234    114.06258 
    6850    296.85235    177.55355    122911.06   -37674.857    3623.5036   -41298.361    115.02538 
    6900    295.61152   -51.507827    123048.75   -37642.008    3608.3575   -41250.366    115.95812 
    6950    294.91891    -149.5369    122948.85   -37688.942    3599.9032   -41288.845    117.06566 
    7000    294.54329   -40.005078    122866.78   -37637.814    3595.3183   -41233.133     118.1404 
    7050    291.34665    122.05592    122975.36    -37665.97    3556.2988   -41222.269    119.48993 
    7100    297.35721    132.43973     122940.2   -37646.392    3629.6661   -41276.059    120.52662 
    7150    295.83845    -195.6769    123017.54   -37664.691    3611.1276   -41275.819     121.8429 
    7200    294.67874   -311.22215    122692.03    -37737.25    3596.9717   -41334.222    122.63804 
    7250     285.9444    28.167662    122616.63    -37803.34    3490.3567   -41293.696    123.36704 
    7300    294.74988     41.57221    122763.67   -37773.175      3597.84   -41371.016    124.36202 
    7350    297.06169    69.561579    122782.41   -37711.153    3626.0589   -41337.211    125.12275 
    7400    298.92093     28.44636    122632.86    -37693.36    3648.7535   -41342.114    125.90605 
    7450    302.32541   -203.58391    122609.86   -37634.782      3690.31   -41325.092      126.907 
    7500     301.5625   -57.595317    122579.38   -37647.089    3680.9977   -41328.086    128.17048 
    7550    297.86122    15.716612    122647.97   -37690.962    3635.8183    -41326.78    128.95826 
    7600    297.89872   -160.65044     122663.3   -37619.698    3636.2761   -41255.974    130.08349 
    7650    297.73703    385.21638    122689.71   -37647.663    3634.3024   -41281.965    130.78426 
    7700    297.12933   -33.822223     122719.5   -37718.055    3626.8846   -41344.939    131.48364 
    7750    300.93289   -96.284548    122599.44    -37717.31    3673.3124   -41390.623    132.42598 
    7800    295.76651   -106.67966    122644.45   -37775.978    3610.2494   -41386.227    133.51922 
    7850    294.38966    336.63102    122763.32   -37744.108     3593.443    -41337.55    134.52159 
    7900    297.60622    119.46645    122875.56   -37718.637    3632.7056   -41351.342    135.41502 
    7950     298.1157   -144.41215    122911.38   -37661.671    3638.9246   -41300.595     136.6731 
    8000    303.25061   -23.215392    122825.35   -37600.164    3701.6035   -41301.768    137.09791 
    8050    294.05545   -128.46765    122668.71   -37611.711    3589.3634   -41201.074     137.5791 
    8100     298.4017   -50.744024    122572.61   -37546.682    3642.4156   -41189.098    138.57661 
    8150    299.29535    69.371863     122691.7   -37598.398    3653.3239   -41251.722    139.43357 
    8200     298.4265   -25.110033     122762.5   -37552.647    3642.7184   -41195.366    140.53471 
    8250    297.86485    174.30984    122744.37   -37570.612    3635.8626   -41206.475    141.01427 
    8300    298.93864   -209.57222    122669.08   -37517.781    3648.9697   -41166.751    141.84419 
    8350    306.36783   -25.746328    122521.14   -37467.821    3739.6535   -41207.475    142.68556 
    8400    300.71965    124.75124    122482.42   -37491.082    3670.7095   -41161.792    143.60091 
    8450    296.94777      75.9029    122589.34   -37549.101    3624.6683   -41173.769    144.83184 
    8500    303.98769    117.87808    122780.25    -37573.37    3710.6006    -41283.97    145.72729 
    8550    296.02025    41.549921    122994.87   -37601.758    3613.3467   -41215.104    147.12323 
    8600     301.0368    54.925237    123069.38   -37604.085    3674.5808   -41278.666    147.94682 
    8650    301.56771    13.156887    123061.49   -37562.442    3681.0613   -41243.503     148.6099 
    8700    300.58741   -229.38014    122973.94   -37582.802    3669.0954   -41251.898    149.46738 
    8750    295.94091   -17.816483    122670.45   -37632.361    3612.3782    -41244.74    149.77609 
    8800    298.24401   -103.42074    122562.11   -37616.918    3640.4907   -41257.409    150.88619 
    8850    298.22812    17.414434    122534.79   -37649.647    3640.2969   -41289.944    152.04252 
    8900    292.77659    185.40898    122745.93   -37685.619    3573.7532   -41259.372    153.14004 
    8950     295.5465   -79.923997    122825.89   -37702.381    3607.5639   -41309.945    154.39558 
    9000    298.86954   -74.268547    122716.32   -37620.588    3648.1262   -41268.714    155.16278 
    9050    299.75342    3.6159076    122765.59   -37647.429    3658.9153   -41306.344    156.14047 
    9100    300.29123   -124.14978    122529.22   -37677.317      3665.48   -41342.797    156.66421 
    9150    305.00456   -46.202128    122437.67    -37618.71    3723.0128   -41341.723    157.77024 
    9200    304.50602   -62.991833    122387.37   -37580.922    3716.9275   -41297.849    158.08534 
    9250    300.01343    138.53199    122518.21    -37638.35    3662.0891   -41300.439    159.18118 
    9300    301.94106   -51.001356     122653.4   -37705.695    3685.6185   -41391.313     160.8122 
    9350    296.49634    139.28221    122722.02   -37703.338     3619.158   -41322.496    161.85626 
    9400    292.95765   -126.06456    122580.23   -37667.633    3575.9633   -41243.596    162.62922 
    9450    296.05324     141.7111    122438.77   -37663.897    3613.7494   -41277.647    163.38436 
    9500    297.11573    69.273369    122575.22   -37709.192    3626.7185   -41335.911    164.47917 
    9550    297.63024    49.822613    122520.89   -37717.089    3632.9989   -41350.088    165.34151 
    9600    291.16452    161.81154    122428.84   -37716.434    3554.0756    -41270.51    166.14956 
    9650    299.60878    145.08958     122375.1   -37654.068    3657.1497   -41311.218    167.04204 
    9700    302.39572    133.18117    122632.92   -37612.422    3691.1683   -41303.591    168.34251 
    9750     302.9239   -10.592792    122680.84   -37594.613    3697.6155   -41292.228    169.90997 
    9800    298.23512   -208.11841    122541.43   -37563.983    3640.3823   -41204.365    170.73802 
    9850    299.95057   -163.78849    122537.06   -37575.572    3661.3218   -41236.894    171.51251 
    9900    302.03723    8.9334447    122518.16   -37569.128    3686.7924    -41255.92    172.49806 
    9950    300.04014    214.79222    122626.81   -37558.701    3662.4151   -41221.116    173.69028 
   10000    298.46977    70.989397    122803.69   -37615.852    3643.2465   -41259.099    174.82219 
   10050    301.46556     105.4927    122886.46   -37566.365    3679.8143   -41246.179    176.26763 
   10100    296.32389    25.729896    122947.53   -37557.905     3617.053   -41174.958    177.70434 
   10150    300.08472    193.50816    123010.47   -37506.477    3662.9593   -41169.436    178.77442 
   10200    302.64878   -253.60592    123093.43   -37522.601    3694.2573   -41216.859    179.78419 
   10250    301.07882   -133.54512    122881.88   -37558.958    3675.0936   -41234.051    180.86325 
   10300    297.34592     52.58705    122791.72   -37532.108    3629.5283   -41161.636    182.37562 
   10350    297.40965   -137.05532    122718.84   -37520.094    3630.3062     -41150.4    183.54706 
   10400    296.21795     99.39163    122846.88    -37515.24    3615.7599       -41131    185.11354 
   10450    301.84222   -163.83004    122818.47   -37580.298    3684.4121    -41264.71    186.47558 
   10500    299.52724   -113.50219    122603.76   -37571.687    3656.1544   -41227.841    187.69818 
   10550    306.89168    101.10039    122632.08    -37570.77    3746.0479   -41316.818    188.51234 
   10600    294.19703     36.29139    122774.36   -37607.128    3591.0917   -41198.219    189.59873 
   10650    296.71309   -137.55403     122740.3   -37630.985    3621.8037   -41252.789    190.71899 
   10700    295.01752    2.2218733    122663.79   -37652.439     3601.107   -41253.546    192.05997 
   10750    292.85271   -52.994754    122680.35   -37655.583    3574.6824   -41230.265    193.65822 
   10800    289.86392   -39.984709    122449.48   -37763.478    3538.1999   -41301.678    194.58832 
   10850    295.03817   -81.198266    122432.93   -37752.522     3601.359   -41353.881    195.98481 
   10900    294.78146   -81.837795    122454.91   -37752.648    3598.2254   -41350.874      197.241 
   10950    298.08399    38.494995    122421.42   -37798.953    3638.5375    -41437.49    198.14193 
   11000     292.4895   -78.641522    122480.33   -37795.513    3570.2488   -41365.761    199.27037 
   11050    296.20176     102.2946    122547.49   -37723.301    3615.5622   -41338.863     200.1861 
   11100    297.70617   -277.54024    122377.33   -37720.774    3633.9257     -41354.7    200.85903 
   11150     296.9433    33.791736    122315.69   -37760.078    3624.6138   -41384.692    201.96403 
   11200    293.37892     27.20967     122353.1   -37809.888    3581.1054   -41390.993    202.77228 
   11250    295.71299    103.45553    122547.26   -37796.167    3609.5961   -41405.763    204.14721 
   11300    292.91189    198.32599    122682.78   -37724.004    3575.4047   -41299.409     205.2302 
   11350    293.20154    11.492565    122877.96   -37740.301    3578.9403   -41319.241    206.67767 
   11400    292.14227   -199.59502    122629.42   -37685.343    3566.0104   -41251.354    207.48676 
   11450    295.89099    220.89189    122524.49   -37652.006    3611.7689   -41263.775    208.42202 
   11500    301.87073   -22.871681    122710.93    -37578.54      3684.76     -41263.3    209.33703 
   11550    302.44803   -21.453001    122760.33   -37510.421    3691.8068   -41202.227    210.23556 
   11600    300.67159    10.944315    122679.04   -37577.191    3670.1228   -41247.313    211.20967 
   11650    304.72034    315.77686    122961.43   -37474.688    3719.5436   -41194.232    212.27543 
   11700    310.44059     19.61125    123161.97   -37432.942    3789.3673   -41222.309    213.67693 
   11750    306.87916   -81.144236    123145.48   -37444.279     3745.895   -41190.174    214.53055 
   11800    296.70995    104.39752    123140.97   -37513.633    3621.7654   -41135.398    215.63017 
   11850     303.2088   -238.71474    122765.16   -37534.263    3701.0931   -41235.356    215.82229 
   11900    300.72283    -227.1582    122712.73   -37559.318    3670.7483   -41230.067    216.41432 
   11950    304.70655   -85.034786    122721.37   -37532.372    3719.3753   -41251.747    217.22493 
   12000    299.17406    65.015023    122881.61   -37499.892    3651.8433   -41151.735    218.64072 
   12050    293.85391   -168.98716    122930.21   -37542.152    3586.9034   -41129.056    219.43981 
   12100    303.79499    19.145985    122965.23   -37573.609    3708.2484   -41281.858     220.2879 
   12150    296.39088    122.27255    122964.89   -37583.983    3617.8707   -41201.853    220.85259 
   12200    301.26883    127.46904    123046.24   -37570.782     3677.413   -41248.195     222.1299 
   12250    296.20178   -153.22266    123016.02   -37572.015    3615.5625   -41187.578    222.81304 
   12300    295.58709    20.944131    122840.01   -37614.766    3608.0594   -41222.825    223.88441 
   12350    299.23468    98.944418    122817.29   -37616.782    3652.5833   -41269.365    224.75183 
   12400    296.78709    -7.331344    122717.37   -37581.597     3622.707   -41204.304    225.65803 
   12450    302.12245   -3.0092426    122620.68   -37607.468    3687.8326   -41295.301    226.41691 
   12500    301.85966    196.69609     122848.7   -37561.815    3684.6249    -41246.44    227.70441 
   12550     299.6183   -35.962393    122837.87    -37531.05     3657.266   -41188.316    228.66466 
   12600     305.0983   -2.7498812    122747.89   -37569.709    3724.1571   -41293.866    229.60694 
   12650    300.67558    131.32254    122707.22   -37576.892    3670.1716   -41247.064    230.43171 
   12700    296.08587    61.941441    122715.91   -37580.824    3614.1476   -41194.971    231.15647 
   12750    301.34476   -341.18336    122625.88   -37575.698    3678.3399   -41254.038    232.20128 
   12800    298.71297    58.557775    122510.49   -37611.933    3646.2151   -41258.148    233.26168 
   12850    301.96641   -60.780807    122539.25   -37619.286     3685.928   -41305.214    234.61917 
   12900    293.22127    251.20179    122601.32   -37650.835    3579.1812   -41230.016    235.95325 
   12950     298.9112    99.097984     122809.5   -37634.042    3648.6348   -41282.677    237.30711 
   13000    295.08426    186.88575    123013.87   -37656.609    3601.9216   -41258.531    238.42571 
   13050    293.73735    12.033723    123024.34   -37664.496    3585.4806   -41249.976    239.83119 
   13100    299.76733   -110.58237    122923.45   -37677.655    3659.0851    -41336.74    240.42184 
   13150    296.09666    33.562198    122962.81   -37706.832    3614.2793   -41321.112    241.07771 
   13200    290.69114    70.898825    123094.08   -37695.456    3548.2973   -41243.753    241.99973 
   13250     291.6561   -67.893353    123039.33   -37698.257    3560.0761   -41258.333    242.79069 
   13300    290.53731    -26.10604    123131.08   -37743.049    3546.4196   -41289.469    244.25997 
   13350    299.71323    10.500571    123038.04   -37744.117    3658.4247   -41402.542    245.16602 
   13400    291.70586   -333.04255    123044.99   -37800.288    3560.6834   -41360.971    246.10364 
   13450    293.10199   -170.03444    122755.88   -37704.197    3577.7251   -41281.922    246.64129 
   13500    296.18426    -118.4953     122677.5    -37703.15    3615.3486   -41318.499    247.84919 
   13550    294.00452    108.74335    122691.07   -37677.423    3588.7418   -41266.165    248.94972 
   13600    296.91734    100.04787    122713.23   -37684.047    3624.2969   -41308.344    249.93389 
   13650    293.27049    32.812946    122689.72   -37725.921    3579.7819   -41305.702    250.72655 
   13700    296.64868     88.20365     122754.1   -37704.723    3621.0175   -41325.741    251.60776 
   13750    299.12954   -24.924985    122720.37   -37650.295    3651.2999   -41301.595    252.66705 
   13800    288.07772    146.38807     122708.4   -37652.569    3516.3969   -41168.966    253.39901 
   13850    295.86497   -39.410372     122634.7   -37654.352    3611.4512   -41265.803    254.10428 
   13900     300.5606    46.698497    122690.99   -37606.883    3668.7681   -41275.651    255.19947 
   13950    301.37988    24.032614    122702.86   -37543.154    3678.7685   -41221.922    256.44792 
   14000    304.26163    11.032816    122740.37   -37522.214    3713.9444   -41236.158    257.93925 
   14050    298.60215   -360.04426    122797.61   -37558.497    3644.8624    -41203.36    259.27963 
   14100    302.13764    63.493857    122802.05   -37612.374    3688.0181   -41300.392    260.35031 
   14150     298.4409   -242.16116    122670.04   -37639.618    3642.8941   -41282.513     261.3921 
   14200     303.5877   -22.349495    122591.89   -37623.633    3705.7181   -41329.351    262.58938 
   14250    300.65438    40.843462    122671.47   -37605.647    3669.9128    -41275.56    264.18828 
   14300    292.24031    8.0869654    122791.07   -37649.601    3567.2072   -41216.808    265.05621 
   14350    297.34383   -104.16736    122683.12   -37671.208    3629.5028    -41300.71    266.10569 
   14400    294.27702   -195.49563    122493.36   -37683.054    3592.0681   -41275.122    266.59291 
   14450    293.40859   -123.07456    122367.07   -37691.593    3581.4677   -41273.061    267.24173 
   14500    299.76894     130.6105    122253.07   -37688.271    3659.1048   -41347.376    268.17401 
   14550    294.79549   -40.131366    122249.49   -37746.949    3598.3968   -41345.346    268.82558 
   14600    296.52142   -108.32644    122349.85   -37699.135    3619.4641   -41318.599    269.88533 
   14650    298.58569    85.353554    122471.89    -37665.53    3644.6615   -41310.191     271.2379 
   14700    299.46839    70.362766    122382.79   -37641.208    3655.4361   -41296.644    272.18193 
   14750    300.23087    81.091785    122511.42   -37544.148    3664.7432   -41208.891    273.43013 
   14800    294.86668   -62.950002    122666.79   -37595.297    3599.2657   -41194.562    274.72375 
   14850    298.48136    105.41019    122686.53   -37606.803    3643.3879   -41250.191    275.66024 
   14900    303.88574    79.741975    122827.57   -37570.939    3709.3562   -41280.296    277.15851 
   14950    297.98872    44.746754    122743.13   -37648.244    3637.3746   -41285.619    278.44821 
   15000    297.27389   -214.18696    122706.88   -37647.458    3628.6491   -41276.107    279.48563 
   15050    297.44257    157.12231    122574.01   -37634.442    3630.7081    -41265.15    280.11248 
   15100    300.14991   -36.746206    122591.56    -37673.66     3663.755   -41337.415    281.32596 
   15150    295.89076    16.141384    122511.41   -37663.611     3611.766   -41275.377     281.9862 
   15200    296.92601   -64.460326    122577.22   -37630.521    3624.4027   -41254.924    283.41616 
   15250    297.07519    69.114015    122659.93   -37645.585    3626.2237   -41271.808     284.9359 
   15300    297.18702    176.29794    122597.71    -37682.66    3627.5887   -41310.249    286.04812 
   15350    301.97711    101.42648    122730.76   -37701.178    3686.0586   -41387.237     287.8633 
   15400     294.0915    167.13321    122892.81   -37735.259    3589.8035   -41325.062    289.04338 
   15450    300.24276    160.64463    122964.45   -37716.175    3664.8884   -41381.064    289.94044 
   15500    296.99646    18.822459    123036.64   -37666.579    3625.2627   -41291.842    291.36048 
   15550    303.08433    66.677728    122995.49   -37580.439    3699.5737   -41280.013    292.90075 
   15600    298.88009    184.66497    122918.82   -37557.129    3648.2551   -41205.384     293.8403 
   15650    298.84457    9.0618942    123014.66   -37544.051    3647.8215   -41191.872    295.49662 
   15700    303.92276    27.195546     122942.8   -37526.946     3709.808   -41236.754    296.54126 
   15750    297.89464    152.40022    122920.06   -37507.223    3636.2263   -41143.449    297.25018 
   15800    302.69148   -44.621378    123012.12   -37514.963    3694.7784   -41209.742    298.07477 
   15850    300.59962   -32.325191    122924.79   -37531.217    3669.2444   -41200.462    299.21834 
   15900    301.74403   -174.27532    122903.05   -37522.288    3683.2135   -41205.501    299.71596 
   15950    302.76534    23.667324    122821.89   -37533.649      3695.68   -41229.329    300.41869 
   16000    298.53589    69.211115    122929.94   -37557.249    3644.0536   -41201.302    301.85381 
   16050    297.27153   -276.50383    122909.56   -37611.891    3628.6203   -41240.512    303.24155 
   16100    297.83684   -44.334701    122789.35   -37624.325    3635.5207   -41259.846    304.06421 
   16150    301.65357     57.57872    122814.28   -37552.984    3682.1093   -41235.093    304.96335 
   16200    295.12543    142.04223     122948.8   -37578.342    3602.4241   -41180.766    306.45909 
   16250    295.79453   -130.86299    122955.76   -37555.154    3610.5915   -41165.746    307.17381 
   16300    303.11713    -57.94156    122966.78   -37580.533    3699.9741   -41280.507     308.1876 
   16350    301.01247   -25.842346    123027.01   -37556.021    3674.2838   -41230.305    308.99835 
   16400     298.8233    313.92273    122977.38   -37623.952    3647.5619   -41271.514    309.73789 
   16450    299.68004    136.44648    123140.79   -37572.718    3658.0196   -41230.738    311.31319 
   16500    305.26336    174.60798    123362.39   -37546.335    3726.1719   -41272.506    312.62305 
   16550    296.34544   -231.33232     123300.8   -37560.077     3617.316   -41177.393    313.35637 
   16600    298.81036    56.270245    123318.05   -37518.897    3647.4039     -41166.3    314.76955 
   16650    300.47504   -289.04575    123351.13   -37573.203    3667.7236   -41240.927    315.91495 
   16700    307.45209    42.532258     123371.5   -37558.706    3752.8885   -41311.595    317.02859 
   16750    298.64705   -130.47227    123364.28   -37606.171    3645.4105   -41251.581    318.21757 
   16800    293.14154    -29.86758    123217.22   -37616.015     3578.208   -41194.223    319.17084 
   16850    295.80168   -130.93196    123065.15   -37624.878    3610.6787   -41235.557    319.57701 
   16900    300.10719    146.65723    122972.51   -37632.378    3663.2335   -41295.611    320.00096 
   16950    293.53467   -69.668222    122923.42   -37659.565    3583.0066   -41242.572    321.26946 
   17000    292.69771   -3.6766027    122804.54   -37687.289    3572.7904   -41260.079    322.44838 
   17050    297.32673    235.61385    122923.32   -37601.749     3629.294   -41231.043    324.14554 
   17100    301.66869   -30.110145    122835.73   -37631.229    3682.2939   -41313.523    324.90185 
   17150    295.52465    15.592373    122876.73   -37686.561    3607.2972   -41293.858    326.00108 
   17200    296.37712   -62.931781    122861.56       -37699    3617.7028   -41316.703    326.79397 
   17250    292.76886    131.46529    122917.36   -37725.119    3573.6588   -41298.777    328.15235 
   17300    294.52858    24.232835    122843.49   -37767.916    3595.1387   -41363.055    328.86321 
   17350    296.17137    -144.3101    122698.65   -37739.067    3615.1913   -41354.258    329.86796 
   17400    288.15009    28.339997    122585.68   -37800.801    3517.2801   -41318.082    330.62278 
   17450    294.15849   -56.061244    122405.34   -37710.703    3590.6212   -41301.324    331.06661 
   17500    302.24763    97.934143    122503.61   -37690.709    3689.3607   -41380.069    332.65178 
   17550    299.47594   -41.644848    122561.06   -37664.453    3655.5283   -41319.981    334.41449 
   17600    298.04943    135.71276    122521.01   -37716.684    3638.1156   -41354.799    335.49056 
   17650    300.92755    165.81661    122868.35   -37713.135    3673.2473   -41386.382    336.87755 
   17700    293.58006   -227.63973    122742.66   -37762.173    3583.5607   -41345.734    337.76299 
   17750    289.77647    6.5138533    122435.67   -37792.579    3537.1325   -41329.712    338.80255 
   17800    292.26151    111.54752    122515.79   -37760.645     3567.466   -41328.111     339.5647 
   17850    301.97211   0.31307407    122613.02   -37690.883    3685.9976   -41376.881    340.82637 
   17900    299.57252    219.80308       122623   -37673.677    3656.7072   -41330.385    341.83164 
   17950    296.99467    103.75773    122663.17    -37678.64    3625.2409   -41303.881    342.51968 
   18000      299.201    103.43844    122780.01   -37608.556    3652.1722   -41260.729    343.67067 
   18050    297.85323   -41.070593     122963.7   -37546.479    3635.7208     -41182.2    344.84481 
   18100    297.72361    205.28927    123146.95   -37537.218    3634.1386   -41171.357    346.03704 
   18150    299.31311     154.5895    123187.96   -37592.234    3653.5406   -41245.775    347.38601 
   18200    302.48927   -165.86403    123103.05   -37643.695    3692.3102   -41336.005     347.7214 
   18250    297.94563   -104.66283    123102.59   -37619.578    3636.8486   -41256.426    348.85628 
   18300    298.69626    12.450569     123095.7   -37565.669    3646.0112    -41211.68    349.42393 
   18350    297.34843    -156.8531    122998.16   -37602.838     3629.559   -41232.397    349.75901 
   18400    296.85923   -188.40875    122714.55   -37686.688    3623.5877   -41310.276     349.8414 
   18450    295.76824    217.91933    122823.56   -37687.075    3610.2705   -41297.345    350.75988 
   18500    292.19743     83.81782    122861.79   -37657.423    3566.6838   -41224.107    351.58506 
   18550    299.37606   -69.971535    122925.68   -37614.387    3654.3091   -41268.696     352.5641 
   18600    304.25428    133.33562    123035.28   -37565.725    3713.8547   -41279.579    353.50378 
   18650    304.42921    -125.7947    122970.52   -37617.042      3715.99   -41333.032    354.09291 
   18700    299.92202   -26.880702    122971.85   -37611.863    3660.9733   -41272.837    355.01182 
   18750    295.60863    159.87009    123214.17    -37639.63    3608.3222   -41247.952    356.83778 
   18800     295.9078    32.714394    123170.84   -37634.612     3611.974   -41246.587    357.85876 
   18850    298.86078    41.213175    123136.94   -37599.571    3648.0194    -41247.59    358.80438 
   18900    298.41988   -46.345515    123059.63   -37599.841    3642.6376   -41242.479    359.68084 
   18950    300.33158    101.26839    122946.58   -37560.269    3665.9725   -41226.242    360.74686 
   19000    298.84994   -94.503396    122991.48   -37580.418    3647.8871   -41228.305    361.75596 
   19050    299.85835    46.189287    122957.17   -37593.837    3660.1962   -41254.033     362.4216 
   19100    306.63785   -143.12433    122924.31   -37557.256    3742.9495   -41300.206    363.24431 
   19150    297.01971     104.6652    122737.44   -37599.766    3625.5464   -41225.313    364.08889 
   19200    301.07783    128.44885    122798.12    -37597.41    3675.0816   -41272.492    365.25795 
   19250    303.52968   -116.23578     122904.7   -37549.148    3705.0099   -41254.158    366.31011 
   19300    299.46992   -22.826707    122854.19   -37450.628    3655.4548   -41106.082    367.38443 
   19350    302.06538   -257.59528    122742.46   -37520.301     3687.136   -41207.437    367.78291 
   19400    300.10801   -228.15228    122656.35    -37535.42    3663.2435   -41198.663    368.90613 
   19450    295.78256    104.72132    122814.97   -37537.422    3610.4453   -41147.867    370.47561 
   19500    303.40659   -48.182933    122859.47   -37482.628    3703.5074   -41186.135     371.9218 
   19550    300.44769    86.258448    122898.36   -37473.273    3667.3898   -41140.663    372.86044 
   19600    301.59317   -57.281576    122748.29   -37503.614    3681.3721   -41184.986    373.41574 
   19650    304.20063    68.231952    122757.53   -37445.297    3713.1998   -41158.497    374.41282 
   19700    297.66866    154.54225    122950.05   -37512.872    3633.4679    -41146.34    375.94292 
   19750    305.90512    375.49959     122890.2   -37495.462    3734.0055   -41229.468    376.78441 
   19800    300.05085    176.40424    123149.56   -37517.683    3662.5459   -41180.229    378.32345 
   19850    299.94511    32.311581    123104.47   -37438.333    3661.2551   -41099.588    379.56708 
   19900    301.90724   -82.080467     123073.3   -37528.987    3685.2058   -41214.193    380.78822 
   19950    305.20158   -180.04106    122885.99   -37536.836    3725.4179   -41262.254    381.66596 
   20000    296.89275   -160.82459    122714.73   -37582.668    3623.9968   -41206.665     381.9915 
   20050     304.6609    74.630448     122601.1   -37627.111    3718.8181   -41345.929    383.39416 
   20100    300.71776   -72.335905    122729.27   -37649.936    3670.6864   -41320.623    385.31716 
   20150     294.3422    78.372849    122763.44   -37656.998    3592.8637   -41249.861    386.48064 
   20200    292.80026    223.65367    122736.08   -37675.736    3574.0421   -41249.779    387.50166 
   20250    299.15126    95.089664     122790.5   -37675.863     3651.565   -41327.428    388.85458 
   20300    297.97673   -89.111608    122829.88   -37614.484    3637.2283   -41251.712     390.3638 
   20350    303.04933    159.68599    122785.11   -37575.688    3699.1466   -41274.835    391.71671 
   20400    298.85141   -133.84414    122871.16    -37616.93     3647.905   -41264.835     393.1116 
   20450    297.91902     33.95642    122888.79   -37635.773    3636.5238   -41272.297    394.20347 
   20500    294.11474    114.06564    122862.17   -37683.184    3590.0872   -41273.271    394.99285 
   20550    298.72083   -53.695259    122902.22   -37749.825    3646.3111   -41396.136    395.81234 
   20600    292.24412   -63.589952    122818.37   -37715.934    3567.2536   -41283.187    396.89753 
   20650    295.85082   -10.721377    122704.37    -37744.29    3611.2785   -41355.568    397.57156 
   20700    299.80848   -89.929016    122501.97   -37693.547    3659.5873   -41353.135    398.33883 
   20750    297.94948    208.26645       122689   -37688.447    3636.8957   -41325.343    399.67296 
   20800    299.74777   -84.874086    122600.78   -37622.167    3658.8463   -41281.014    400.33379 
   20850    297.87319   -37.176955    122678.06   -37576.859    3635.9644   -41212.824    401.50084 
   20900    292.83649    -137.8609    122604.09   -37590.482    3574.4843   -41164.967    402.38316 
   20950    298.60167    175.76146     122574.4   -37611.629    3644.8565   -41256.485     403.2835 
   21000    297.07169    73.276062    122636.91    -37625.27    3626.1809   -41251.451    404.29888 
   21050    304.01321    98.059657    122775.63   -37592.753     3710.912   -41303.665    405.48314 
   21100    299.89015    33.740805    122826.55   -37591.894    3660.5843   -41252.478     406.5908 
   21150    297.90047    10.433512    122742.33    -37603.96    3636.2974   -41240.258    407.02089 
   21200    302.83308   -112.82368    122682.47   -37589.591    3696.5069   -41286.097    407.31952 
   21250    310.07414    -139.5447    122830.97   -37552.208    3784.8943   -41337.102    408.61204 
   21300    302.06889    114.69922    122840.46   -37545.411    3687.1789   -41232.589    409.39851 
   21350    300.24928    68.154178    122916.56    -37582.58     3664.968   -41247.548    410.82976 
   21400    300.75696   -39.355347    122962.68    -37592.64    3671.1649   -41263.805    412.13935 
   21450       302.86   -130.24605     122823.8   -37521.839    3696.8355   -41218.675    413.07469 
   21500    304.25153   -151.79603    122734.47   -37531.848    3713.8211   -41245.669    414.41935 
   21550     300.6291    121.26896     122890.1   -37504.194    3669.6043   -41173.799    415.63432 
   21600    303.82622   -22.234577    122818.68   -37507.788    3708.6295   -41216.418    416.08764 
   21650    297.40767   -6.8046067     122962.1   -37542.828    3630.2821    -41173.11    417.27851 
   21700    298.28539   0.51644826    122854.13   -37606.795    3640.9959   -41247.791    417.40693 
   21750    296.61022    -42.04425    122768.89    -37632.39    3620.5481   -41252.938    418.64138 
   21800    294.17214    172.31098    122682.65   -37613.043    3590.7879   -41203.831    419.45726 
   21850    299.00113   -219.55984    122802.15   -37608.142    3649.7325   -41257.875    420.48042 
   21900    299.57207    50.419795    122771.67   -37606.102    3656.7016   -41262.803    422.07061 
   21950    297.18672   -184.14301    122791.02   -37598.424     3627.585   -41226.009    422.83726 
   22000    294.03585   -47.832186    122674.14   -37661.992    3589.1243   -41251.117    423.27556 
   22050    291.69147   -45.943325    122547.31   -37608.917    3560.5078   -41169.424    423.41629 
   22100    300.84629    125.02623    122684.26   -37633.214    3672.2553   -41305.469    424.44784 
   22150      295.535   -150.74453    122850.62   -37727.082    3607.4235   -41334.505    426.12778 
   22200    290.64925   -156.12305    122755.58   -37776.937     3547.786   -41324.723    427.15802 
   22250    297.73136   -33.130152    122799.39   -37724.961    3634.2332   -41359.194    427.91947 
   22300    296.74982   -8.7271654    122758.61   -37713.886    3622.2521   -41336.138    428.69426 
   22350    302.78653   -314.58861    122865.38   -37612.092    3695.9386    -41308.03    429.76463 
   22400    302.19247    80.767847    122786.64   -37602.688    3688.6873   -41291.375    430.49063 
   22450    301.26192   -18.668645    122746.75   -37595.123    3677.3287   -41272.452    430.86213 
   22500    297.54807   -256.33609    122476.21   -37607.831    3631.9958   -41239.827    430.86095 
   22550    294.73634    64.665351    122688.59   -37623.433    3597.6747   -41221.108    432.22451 
   22600    294.96671   -93.320638    122725.65   -37629.592    3600.4867   -41230.078    433.06585 
   22650    294.65888   -37.582289    122709.01   -37683.616    3596.7292   -41280.345    433.30896 
   22700    295.02458   -134.05678    122478.34   -37674.662    3601.1931   -41275.855     433.0286 
   22750    304.52841    25.366639    122320.74   -37677.698    3717.2009   -41394.899    433.28393 
   22800    296.41627   -18.850313     122528.6   -37624.623    3618.1806   -41242.804    434.94296 
   22850    297.10011    -42.45285    122491.95   -37633.182    3626.5278    -41259.71    435.84276 
   22900    297.33142    179.28857     122525.9   -37654.257    3629.3513   -41283.608    437.36707 
   22950    293.31808    157.85985     122588.8   -37704.842    3580.3628   -41285.204    439.06618 
   23000    297.48249   -92.034018     122656.7   -37696.039    3631.1954   -41327.234     440.3772 
   23050    294.84085    91.718198    122600.83   -37707.648    3598.9504   -41306.598    441.41805 
   23100    301.76052    182.43569    122621.51   -37622.736    3683.4148    -41306.15    442.72266 
   23150    298.88619   -73.139191    122646.13    -37716.01    3648.3295    -41364.34     443.9503 
   23200    301.96097    246.16416    122628.64   -37648.074    3685.8616   -41333.936    445.09765 
   23250    293.99509   -100.29471    122632.56   -37632.931    3588.6267   -41221.557    446.24294 
   23300    299.86702   -107.73004    122542.78   -37637.486    3660.3019   -41297.788    447.90306 
   23350    297.02454    303.26594    122814.08    -37591.09    3625.6055   -41216.695    449.92701 
   23400    297.90552    32.032813    123082.49   -37595.052     3636.359   -41231.411     451.8592 
   23450    296.23214     258.0152    123125.47   -37563.948    3615.9331   -41179.881    452.76453 
   23500    305.82555   -78.912176    123090.88   -37553.588    3733.0342   -41286.622     453.1956 
   23550      302.616   -13.052699    123133.22   -37486.753    3693.8571    -41180.61    454.48897 
   23600    303.28812    266.77109    123331.96   -37514.399    3702.0613   -41216.461     455.4588 
   23650    302.05353    7.5683663    123477.13   -37563.342    3686.9914   -41250.333    457.00516 
   23700    302.00493   -223.02723    123413.57   -37552.889    3686.3981   -41239.287    457.34095 
   23750    302.87204   -98.755249    123118.16   -37562.006    3696.9825   -41258.988    457.39404 
   23800    300.59797    117.97734    123202.59   -37570.612    3669.2242   -41239.836    458.72763 
   23850    296.88199   -89.912142    123124.55   -37633.746    3623.8654   -41257.611    460.22242 
   23900    296.48796     9.564806    122998.54   -37661.543    3619.0558   -41280.599     460.9331 
   23950    298.92649    -82.63872    122942.82   -37628.964    3648.8214   -41277.785    462.04068 
   24000    301.01973    170.41765    122863.01   -37614.544    3674.3724   -41288.917    462.27422 
   24050    301.87223   -42.930208    122766.05   -37593.325    3684.7784   -41278.103    462.68053 
   24100    300.77848   -114.46868    122795.16   -37573.755    3671.4276   -41245.183    463.40135 
   24150     305.1937   -59.674346    122884.21     -37577.9    3725.3216   -41303.222    464.38088 
   24200    295.50946    32.484685    122933.28   -37642.687    3607.1117   -41249.799    465.50934 
   24250    300.40634   -82.287745    122981.75   -37672.429    3666.8851   -41339.314    466.59503 
   24300    295.09779    75.308778    122970.18   -37686.457    3602.0867   -41288.544    467.08605 
   24350    292.41273   -40.039485    122965.06   -37682.196    3569.3117   -41251.508    467.95382 
   24400     294.5941    15.111763    122816.08   -37716.764    3595.9384   -41312.702    468.51083 
   24450    296.12655    167.19791     122867.7   -37674.259    3614.6442   -41288.904    469.52919 
   24500    290.79459   -93.995338    122934.24    -37684.15    3549.5601    -41233.71     470.7658 
   24550    297.81695   -176.66156    122682.85   -37705.954     3635.278   -41341.232    470.85093 
   24600    287.21005   -211.53517     122674.9   -37721.797    3505.8057   -41227.602    471.81574 
   24650    301.77228   -211.77569    122594.33   -37703.999    3683.5583   -41387.557    472.35803 
   24700    290.36204   -66.009638    122660.14   -37742.964    3544.2802   -41287.244    473.33819 
   24750    298.47581    55.401917    122614.45   -37684.024    3643.3202   -41327.344    473.65267 
   24800    298.43759   -237.42522    122307.56   -37742.296    3642.8537    -41385.15    474.40989 
   24850    294.85311    206.95434    122392.75   -37709.489    3599.1001   -41308.589    476.14511 
   24900    294.97999    87.911788    122526.56   -37753.776    3600.6489   -41354.425    477.04882 
   24950    293.79505   -51.195856    122490.21   -37763.637     3586.185   -41349.821    478.15468 
   25000    293.64406     201.0634    122594.99   -37696.923    3584.3419   -41281.265    479.90919 
   25050    295.46171    60.635841       122600   -37755.426    3606.5289   -41361.955    481.16618 
   25100    296.41493    55.283086    122715.84   -37732.209    3618.1642   -41350.374    482.43303 
   25150    289.05764    238.53468    122803.72   -37772.958    3528.3581   -41301.316    483.81196 
   25200    289.51492   -149.56248    122839.83   -37828.519    3533.9399   -41362.459    485.00045 
   25250    295.11704   -35.132942    122887.32   -37806.223    3602.3217   -41408.544    486.13604 
   25300    291.54734    207.53452     122805.3    -37797.74    3558.7485   -41356.488    486.81765 
   25350    300.52972   -39.941249    122900.69   -37696.304    3668.3911   -41364.695    488.19805 
   25400    293.03177   -223.32774    122849.36   -37745.764     3576.868   -41322.632    489.29585 
   25450    294.66391   -77.413637    122698.77   -37699.381    3596.7906   -41296.172    490.04397 
   25500    300.07318    89.347294    122637.96   -37679.824    3662.8185   -41342.642    490.48763 
   25550    297.25627    23.986106    122713.15   -37613.512    3628.4341   -41241.946    491.88472 
   25600    300.51479   -228.74209    122859.14   -37514.195    3668.2089   -41182.404    492.88206 
   25650    296.19174   -100.24184    122656.76    -37570.06      3615.44     -41185.5    493.89724 
   25700    295.15881   -64.660614    122609.04   -37624.198    3602.8316   -41227.029    495.02572 
   25750    297.30641   -101.14676    122491.67   -37645.482    3629.0461   -41274.528    495.63048 
   25800    298.69914   -62.671511    122483.75   -37518.553    3646.0463   -41164.599     496.7947 
   25850    306.36686     117.5261    122417.26   -37512.561    3739.6416   -41252.203    497.28069 
   25900    306.58281   -82.211677    122658.15   -37524.267    3742.2776   -41266.544    498.74307 
   25950     298.9504    88.388695       122717   -37588.279    3649.1133   -41237.393    499.23984 
   26000    305.69554    121.10554    122896.18   -37551.035    3731.4473   -41282.482    500.89056 
   26050    299.13267   -157.92824    122986.74   -37583.809    3651.3382   -41235.147    502.84476 
   26100      299.979    -218.3509    122814.83   -37590.572    3661.6688   -41252.241    504.36435 
   26150    299.14596   -194.21897    122670.95   -37563.638    3651.5003   -41215.138    504.81796 
   26200    298.68534    63.225423    122663.16   -37617.978    3645.8779   -41263.856    505.97106 
   26250    294.47201    123.53131    122568.11   -37651.928    3594.4481   -41246.376    505.82228 
   26300    297.03886    -6.127946    122594.58   -37682.917    3625.7802   -41308.698     506.7853 
   26350    298.08541    266.59098    122642.98   -37682.503    3638.5548   -41321.057    507.93391 
   26400    295.43732    36.794007    122701.85   -37714.388    3606.2312   -41320.619    508.90214 
   26450    302.46539    72.882172     122793.1   -37612.313    3692.0188   -41304.332    510.38972 
   26500    306.61933    103.81032    122956.07   -37635.858    3742.7234   -41378.582    511.38122 
   26550    301.04777    72.341124    122982.44   -37627.144    3674.7147   -41301.859    511.84651 
   26600    299.04641   -264.17767    122933.84   -37609.882    3650.2852   -41260.167    512.29957 
   26650    295.49213   -48.614183    122946.78   -37598.476    3606.9001   -41205.376    513.87461 
   26700    298.61003  -0.40384422    122939.53   -37542.417    3644.9586   -41187.376    514.76258 
   26750    301.77647    -16.14477    122862.16   -37520.988    3683.6094   -41204.598    515.59758 
   26800    302.29039   -67.106362    122737.07   -37593.285    3689.8826   -41283.168    515.85882 
   26850    300.69811   -49.810493    122789.67    -37623.31    3670.4465   -41293.756    516.77508 
   26900    301.04736   -65.942761    122951.63    -37545.33    3674.7097    -41220.04    517.36748 
   26950    302.99078    29.734701    123005.51    -37531.32    3698.4319   -41229.751     517.7554 
   27000    299.28936    180.35497    123074.64   -37561.393    3653.2507   -41214.643    518.46569 
   27050    300.14431    173.52177    123089.88   -37568.612    3663.6867   -41232.299    518.57558 
   27100    302.32582    30.699824    123156.22   -37536.683    3690.3151   -41226.998    519.57748 
   27150    301.76712    35.012773    123070.53   -37544.455    3683.4954    -41227.95     520.3258 
   27200    305.19574   -121.86783    122910.43   -37571.216    3725.3465   -41296.562    521.01233 
   27250    297.76596   -144.61686     122702.9   -37546.396    3634.6555   -41181.051    520.82401 
   27300    297.05819    59.035938    122919.35   -37461.442    3626.0162   -41087.458    522.04702 
   27350    303.27477   -162.41902    122920.75   -37440.088    3701.8983   -41141.986     523.0904 
   27400    299.99003   -131.28462     122788.2   -37479.178    3661.8034   -41140.981    523.13495 
   27450    307.59167   -13.612902     122833.6   -37514.405    3754.5923   -41268.997    524.15338 
   27500    294.27659   -37.997442    122779.54   -37601.615    3592.0628   -41193.678    525.61927 
   27550    292.64107    295.42203    122749.71   -37653.859     3572.099   -41225.958    526.53499 
   27600    294.95046   -134.51002    122779.44    -37694.55    3600.2884   -41294.838     528.0794 
   27650    292.25501   -2.7492644    122736.99   -37658.496    3567.3865   -41225.883     528.7556 
   27700    295.81704    122.78154    122894.93   -37602.839    3610.8662   -41213.705    530.04497 
   27750    303.18451    22.606454     122916.2   -37526.975    3700.7966   -41227.772    530.72914 
   27800    300.85135    -169.6421    122827.39   -37526.888    3672.3171   -41199.205    531.01318 
   27850    303.20344    73.586267    122842.89    -37571.84    3701.0277   -41272.868    532.16164 
   27900    296.20645    155.42724    122812.17   -37643.339    3615.6195   -41258.958    533.28647 
   27950    293.85931    47.016241    122671.93   -37639.692    3586.9693   -41226.661    534.70965 
   28000    299.55102    70.594296    122644.68   -37702.035    3656.4447   -41358.479    535.64916 
   28050    292.86328   -119.36641    122778.31   -37723.097    3574.8113   -41297.908    537.12211 
   28100    292.46818    104.39858    122711.74   -37675.167    3569.9887   -41245.156    537.32247 
   28150     299.5662    18.046836    122864.37    -37625.08      3656.63    -41281.71    538.01355 
   28200    297.94075   -88.968824     122722.8   -37653.719    3636.7891   -41290.508    538.19439 
   28250    293.33943   -32.392868    122510.11   -37647.866    3580.6234   -41228.489    538.25045 
   28300    296.63717    133.42847    122431.33   -37647.374    3620.8771   -41268.251    538.47062 
   28350    299.49301   -17.430848    122641.95   -37612.801    3655.7366   -41268.538    540.07523 
   28400    297.63231    24.410265    122519.48   -37626.392    3633.0241   -41259.416    541.22276 
   28450    302.16894    35.480343    122771.87   -37605.046    3688.4001   -41293.446    542.34763 
   28500    298.12982    139.92189    122811.48   -37647.408    3639.0969   -41286.505    543.36028 
   28550    298.34658   -41.572276       122901   -37656.565    3641.7428   -41298.308    543.84381 
   28600    294.10723    56.209877    122818.89   -37675.551    3589.9956   -41265.547    544.42506 
   28650    292.58174    206.00369     122763.7   -37664.638    3571.3747   -41236.013    544.68084 
   28700     298.2892   -114.64546    122725.23     -37663.4    3641.0424   -41304.442    545.71006 
   28750    295.03768    2.5420441    122719.04   -37680.731     3601.353   -41282.084    547.21337 
   28800    293.20154   -89.325394    122688.05   -37692.067    3578.9403   -41271.007    547.51494 
   28850    299.71354    49.933989    122557.13   -37672.179    3658.4285   -41330.608     547.5396 
   28900    295.69435    131.01759       122708   -37652.751    3609.3686    -41262.12    548.87326 
   28950    296.35051    243.83536    122724.47    -37626.74     3617.378   -41244.118    549.98434 
   29000    298.54234    177.37801    122952.64    -37601.82    3644.1323   -41245.952    552.04776 
   29050     301.9035     46.83462    123192.56    -37600.59    3685.1601    -41285.75    553.55536 
   29100    300.98267   -32.015028    123164.48   -37589.938    3673.9201   -41263.858    554.30623 
   29150    301.67015   -149.78168     123073.3   -37557.499    3682.3117    -41239.81    554.41012 
   29200    302.94109    21.803821     123079.9    -37510.18    3697.8253   -41208.005    555.29542 
   29250    302.61874   -273.28419    122951.06   -37559.779    3693.8905    -41253.67    555.51795 
   29300    303.75377    53.850851    122854.36   -37554.055    3707.7453     -41261.8    556.01059 
   29350     301.7442   -232.30497    122864.06   -37592.674    3683.2156    -41275.89     556.9553 
   29400    295.95478    13.572047    122645.85   -37605.118    3612.5475   -41217.666    557.21658 
   29450    298.08618     276.8564    122690.58   -37551.235    3638.5643   -41189.799    557.74492 
   29500    300.80334    196.27986    122655.15    -37585.63    3671.7311   -41257.362     558.8421 
   29550    302.72362    5.6480648    122748.79   -37603.213    3695.1708   -41298.384    560.39728 
   29600    297.67613    126.12038    122877.31   -37557.028     3633.559   -41190.587    561.47105 
   29650    300.53598    127.67446    122866.15   -37505.017    3668.4676   -41173.485    562.57754 
   29700    297.39849     10.51319    122853.88   -37604.626      3630.17   -41234.796    562.87161 
   29750    294.51256   -215.85319    122739.48   -37656.084    3594.9431   -41251.027    562.78038 
   29800    292.55056    48.267944    122756.09   -37705.653    3570.9942   -41276.647     563.0776 
   29850    300.27465   -281.30764    122509.38   -37681.634    3665.2776   -41346.912    562.54753 
   29900    300.83826    333.97418    122444.29   -37681.498    3672.1573   -41353.655    562.75276 
   29950    293.23992    105.47785    122557.43   -37717.242    3579.4088   -41296.651    563.91346 
   30000      298.039   -106.22567    122409.81   -37738.637    3637.9883   -41376.625    564.27098 
   30050    294.73669     53.68355    122447.75   -37700.661     3597.679    -41298.34    564.99019 
   30100    299.04935    65.371823    122510.93   -37644.205    3650.3212   -41294.526    565.60288 
   30150    298.31093   -185.76508    122395.58   -37642.704    3641.3076   -41284.011    565.68747 
   30200    291.26538   -153.61714    122381.95   -37697.886    3555.3068   -41253.193    566.42913 
   30250    295.62349    41.049031    122279.32   -37663.032    3608.5036   -41271.535    566.87701 
   30300    295.96686    4.3960873    122371.37   -37666.214     3612.695   -41278.909    568.88422 
   30350    296.74322     188.1916    122385.75   -37607.511    3622.1715   -41229.683    569.99991 
   30400    300.09729   -249.51837    122361.87   -37648.512    3663.1127   -41311.625    570.57757 
   30450    290.90259   -25.015879    122201.39   -37766.763    3550.8784   -41317.641    571.11365 
   30500    293.57494     151.7989    122119.83   -37754.746    3583.4982   -41338.245    571.43333 
   30550    290.55989    69.769854    122328.59   -37750.045    3546.6952    -41296.74    572.22677 
   30600    299.56131    198.31358    122376.25   -37698.568    3656.5703   -41355.139    572.87822 
   30650     298.7767    177.60949    122677.95    -37690.49    3646.9931   -41337.483    574.18915 
   30700    293.94078   -203.58212    122654.03   -37739.253    3587.9638   -41327.217    574.95756 
   30750    299.11814    88.445175     122697.4   -37684.197    3651.1608   -41335.358     576.5758 
   30800     293.1786   -29.209825    122616.55   -37684.262    3578.6603   -41262.922    577.30944 
   30850    304.46229   -68.452813    122701.78   -37577.716    3716.3938    -41294.11    578.81626 
   30900    297.34462   -146.33921    122610.74    -37609.19    3629.5124   -41238.703     579.9675 
   30950    296.86504   -18.237596    122461.66   -37611.608    3623.6585   -41235.266    581.51595 
   31000    296.82409    45.452337    122532.12   -37630.929    3623.1587   -41254.088    582.98076 
   31050    298.49073    95.348521    122389.89   -37628.445    3643.5024   -41271.947    583.26485 
   31100    296.20355    190.99514    122583.59   -37643.548    3615.5841   -41259.132     584.3677 
   31150    298.38383   -113.88479    122553.11   -37635.867    3642.1975   -41278.064    584.80556 
   31200     297.1173    48.598635    122556.17   -37645.435    3626.7377   -41272.173     585.3243 
   31250    300.64394    86.669465    122791.95   -37614.643    3669.7853   -41284.428    586.97777 
   31300     303.2192    55.782233    122958.08   -37542.207    3701.2201   -41243.427    588.46438 
   31350    297.46299    17.290057    123046.49   -37554.272    3630.9573   -41185.229    589.81985 
   31400    294.08247   -77.840336    123250.84   -37590.708    3589.6933   -41180.401    591.90205 
   31450    298.04531   -32.781027    123133.01   -37580.888    3638.0654   -41218.954    592.85148 
   31500    301.73731    19.872941    123078.76   -37545.278    3683.1314    -41228.41    592.96728 
   31550    301.41804   -114.77372    123153.66   -37573.842    3679.2343   -41253.076    594.74991 
   31600    300.15564   -40.816779    123085.08   -37561.465    3663.8249    -41225.29    596.65133 
   31650    299.37471   -70.570164    122956.13    -37613.16    3654.2926   -41267.453    597.02837 
   31700    297.12594    85.356214     123067.4    -37580.35    3626.8431   -41207.193    598.95612 
   31750    303.61216   -238.74946    122925.37   -37518.113    3706.0166   -41224.129    599.69757 
   31800    297.22207    143.35984    122809.81   -37558.453    3628.0166    -41186.47    600.84524 
   31850    296.44126   -109.80121    122871.42   -37623.557    3618.4857   -41242.043    601.65989 
   31900      300.336   -153.48295    122722.63   -37618.615    3666.0265   -41284.641    603.03215 
   31950    296.60282    121.52275    122645.52   -37640.242    3620.4577     -41260.7    603.80122 
   32000    300.16794    61.816254     122680.2   -37613.818    3663.9752   -41277.793    604.87723 
   32050    297.96764    50.608638    122937.05   -37587.437    3637.1174   -41224.554    606.47958 
   32100    296.36588    224.17845    122928.45   -37640.846    3617.5655   -41258.412    607.89584 
   32150    295.06275   -264.20472    122955.48   -37650.702     3601.659   -41252.361      609.227 
   32200    291.69588   -214.18585    122685.75   -37747.272    3560.5616   -41307.833    609.27086 
   32250    291.44885    40.647226    122604.67   -37751.527    3557.5462   -41309.073    609.68186 
   32300    298.70034    92.992021     122608.1   -37708.155    3646.0609   -41354.216    609.93111 
   32350    298.67199    28.985979     122625.9   -37727.704    3645.7149   -41373.419    611.05754 
   32400    291.02748   -29.313096    122724.85   -37726.908    3552.4028   -41279.311    611.68181 
   32450    302.48828    10.279688     122669.2   -37705.761    3692.2981   -41398.059    613.28539 
   32500    291.97567    337.57761    122677.36   -37647.043    3563.9769    -41211.02    614.48115 
   32550    296.21217    67.914415    122858.42   -37652.575    3615.6893   -41268.264      615.892 
   32600    299.21295   -139.87626    122917.73    -37592.66    3652.3181   -41244.978    616.90932 
   32650    298.73398   -116.90596    122780.15   -37606.857    3646.4716   -41253.329    616.48277 
   32700    295.00307    25.173578    122806.55   -37677.329    3600.9306    -41278.26    617.60307 
   32750    296.29321    121.43269     122898.6   -37625.599    3616.6786   -41242.278    619.56215 
   32800       301.57   -200.71995    122874.91   -37545.653    3681.0893   -41226.742    620.13022 
   32850    303.85392    42.499937    122846.43   -37554.555    3708.9677   -41263.523    620.26156 
   32900    299.05751   -77.457081    122946.76   -37608.188    3650.4207   -41258.609    621.01016 
   32950    299.60851    108.51319    122937.86   -37591.037    3657.1464   -41248.183    621.14072 
   33000    294.83826   -162.50569     122893.9   -37587.491    3598.9188    -41186.41    622.01041 
   33050    299.16702   -33.817327    122954.36   -37602.935    3651.7574   -41254.692    623.46161 
   33100    295.00643    154.89773    122702.49   -37589.571    3600.9715   -41190.543    623.31279 
   33150    298.77598    21.787537     122809.2   -37561.263    3646.9843   -41208.247    624.79384 
   33200    296.88982   -18.518079    122692.98   -37587.365     3623.961   -41211.326    625.70239 
   33250    303.69947    122.62133     122653.9   -37606.743    3707.0824   -41313.826    626.28051 
   33300    293.59655     52.12338    122780.16   -37580.835    3583.7619   -41164.597    627.48639 
   33350    301.45971   -52.021496    122884.88   -37619.318     3679.743   -41299.061    629.06746 
   33400    301.07764    102.00497    122838.25   -37625.065    3675.0793   -41300.144    630.44691 
   33450    302.24836     -49.1929    122779.53   -37690.805    3689.3696   -41380.175    631.41965 
   33500    300.88672    138.13506    122766.43   -37713.201    3672.7489    -41385.95    632.47127 
   33550    296.21304   -20.257506    122919.11   -37669.474       3615.7   -41285.174    633.87834 
   33600    297.24575     117.6252    122709.79    -37697.42    3628.3057   -41325.725    633.54073 
   33650    300.76174    104.39435    122884.87   -37666.255    3671.2233   -41337.479    634.87114 
   33700    296.36777    100.84268    123165.96   -37646.802    3617.5887   -41264.391     637.1763 
   33750    304.81737   -180.22023    123035.91   -37536.353    3720.7279   -41257.081    637.30407 
   33800     306.5951    85.596947    123054.69   -37519.993    3742.4277   -41262.421    638.30847 
   33850    298.28465    85.485827    123260.16   -37529.916    3640.9868   -41170.903    639.67517 
   33900    304.85732   -136.76051    123243.38    -37483.76    3721.2156   -41204.976    640.23293 
   33950    293.89817    22.144518    123240.47   -37551.446    3587.4437   -41138.889    641.51195 
   34000    294.08561   -32.629678    123207.55   -37628.301    3589.7316   -41218.033    642.59393 
   34050    300.20681   -69.238958    123067.18   -37617.506    3664.4496   -41281.956    642.80708 
   34100    302.34632    33.835718    122866.09   -37636.111    3690.5653   -41326.676    642.63917 
   34150    296.02539   -154.27713    122885.07   -37689.848    3613.4094   -41303.258    643.04879 
   34200    295.46424    36.049639    122943.67   -37671.012    3606.5598   -41277.572    643.70382 
   34250    299.32311   -45.416841    122953.42   -37683.328    3653.6627   -41336.991    645.00274 
   34300    293.27125   -276.65811    122923.31   -37746.624    3579.7912   -41326.415    646.30196 
   34350    291.76315   -31.138641    122751.39   -37738.978    3561.3827   -41300.361    647.08292 
   34400    297.14744    -207.5165    122730.63   -37726.588    3627.1056   -41353.693    647.73483 
   34450    294.50001    251.89967    122733.47   -37678.218      3594.79   -41273.008    648.93862 
   34500    300.52964   -62.827861    122675.29   -37570.018    3668.3902   -41238.409    649.82886 
   34550    304.67839    64.147465     122746.9   -37488.709    3719.0315    -41207.74    650.86504 
   34600    295.98779    110.36681    122893.23    -37521.19    3612.9505   -41134.141    652.15335 
   34650    298.70237    68.522107    122878.73   -37551.777    3646.0857   -41197.863    652.96037 
   34700    298.91606    34.902028    122860.07   -37594.944    3648.6941   -41243.638    653.35864 
   34750    294.03439    165.54581    122716.52    -37660.99    3589.1064   -41250.096    654.11315 
   34800    297.47593     50.69215    122791.08   -37654.201    3631.1153   -41285.316    655.32827 
   34850    297.98247    175.25323    122939.81   -37627.742    3637.2984   -41265.041    656.93115 
   34900    301.43093   -265.11558    122758.22   -37616.721    3679.3917   -41296.113    657.42262 
   34950    299.65031    26.750467     122619.7   -37641.461    3657.6567   -41299.118    658.10525 
   35000    299.32135   -230.61744    122523.12   -37644.461    3653.6413   -41298.102    658.50163 
   35050    301.65131    150.39063     122420.4   -37595.087    3682.0818   -41277.169    658.17401 
   35100    298.99557    147.86479       122594   -37621.261    3649.6646   -41270.926    659.14161 
   35150    304.15543   -49.563073    122761.87    -37641.06     3712.648   -41353.708     660.7476 
   35200    300.34941    168.08528    122970.88    -37580.11    3666.1901     -41246.3    663.03522 
   35250    299.25231    34.032974    123002.98    -37605.76    3652.7985   -41258.558    663.64734 
   35300    303.21448    58.756193    123011.96   -37602.059    3701.1625   -41303.222     664.2513 
   35350    299.30232     116.9505    123095.34   -37624.868     3653.409   -41278.277    665.26647 
   35400    297.83786   -247.97291    123021.73    -37641.95    3635.5332   -41277.483    665.75515 
   35450     298.5022    175.69073    122904.42   -37638.379    3643.6424   -41282.022    665.88518 
   35500    301.02971    94.966725    123041.93   -37649.035    3674.4943   -41323.529    667.06839 
   35550    296.34459     44.71417    123122.32   -37595.933    3617.3057   -41213.238     668.3462 
   35600    297.29148    -39.56778    123039.57   -37624.404    3628.8638   -41253.268    668.98207 
   35650    296.16982    178.11335    123188.89   -37629.294    3615.1724   -41244.466    670.24768 
   35700    298.48832    77.755144     123184.3   -37587.533     3643.473   -41231.006    671.08079 
   35750    306.08723   -58.705233    123071.11   -37509.085    3736.2284   -41245.313    671.38499 
   35800    302.66928    48.430801    122967.26   -37445.371    3694.5075   -41139.878    671.94108 
   35850    304.08798   -75.599042    122930.99    -37478.47    3711.8248   -41190.294    672.10269 
   35900    301.45542     -83.4355    122876.39   -37546.402    3679.6907   -41226.093    672.55873 
   35950    301.72115   -49.114141     122762.9   -37612.352    3682.9343   -41295.286    672.69029 
   36000    301.07654   -74.021575    122877.24   -37626.142    3675.0658   -41301.208    674.05917 
   36050    301.78458   -62.748074    122936.54   -37624.575    3683.7085   -41308.284    675.21411 
   36100    298.46519   -50.972442    122839.14   -37655.987    3643.1906   -41299.178    676.21668 
   36150    295.34849    231.66454    122905.51   -37661.018    3605.1469   -41266.165    677.01669 
   36200    296.29657     104.4414     122874.9   -37628.022    3616.7196   -41244.741     677.9237 
   36250    293.77953   -141.81164    122709.94       -37711    3585.9955   -41296.995    677.67112 
   36300    299.95624    20.648797    122570.36   -37631.415     3661.391   -41292.805    677.55206 
   36350    295.76298   -19.895665    122562.57   -37650.564    3610.2063    -41260.77    677.67268 
   36400    300.48416   -85.290829    122626.21   -37656.134     3667.835   -41323.969    679.27378 
   36450    296.64894    189.29219    122577.98   -37707.486    3621.0207   -41328.507    679.86572 
   36500    297.73159   -105.04636     122696.3   -37679.576     3634.236   -41313.812    681.62416 
   36550     301.6769   -31.536556    122550.44   -37663.832     3682.394   -41346.226    681.81992 
   36600    300.14258    -106.2418    122645.59   -37641.337    3663.6656   -41305.002    682.99777 
   36650    298.33521   -133.46928    122671.53   -37657.945     3641.604   -41299.549    683.32949 
   36700     297.3594   -114.13448    122539.06   -37681.492    3629.6929   -41311.185    684.35341 
   36750    297.57236   -37.748458    122607.61   -37712.697    3632.2923   -41344.989    685.21145 
   36800    291.88224   -208.25637    122380.31   -37750.082    3562.8364   -41312.919    684.90276 
   36850    292.41659    54.447155       122320   -37717.374    3569.3589   -41286.733    685.28115 
   36900    295.51419    115.37773     122472.7   -37688.379    3607.1695   -41295.549    686.56687 
   36950    301.24145   -175.58334    122483.46   -37715.134    3677.0788   -41392.212     687.2668 
   37000    302.14339    153.50278    122581.84   -37694.173    3688.0882   -41382.261    689.17816 
   37050    293.31175    19.794024    122882.77    -37741.98    3580.2856   -41322.266    691.59075 
   37100     298.1054   -88.503741    122819.98   -37718.167    3638.7989   -41356.966     691.3608 
   37150    291.39866    -86.50332     122631.9   -37717.956    3556.9336   -41274.889    692.31381 
   37200    295.10944    31.082533    122699.65   -37736.049     3602.229   -41338.278    693.68094 
   37250    294.20615    32.511363    122786.79   -37727.905     3591.203   -41319.108    696.14224 
   37300    296.63527     145.8577    122741.97   -37736.107    3620.8538   -41356.961    696.40365 
   37350    296.70672   -99.709516    122719.71    -37694.28    3621.7259   -41316.005    697.08305 
   37400    292.97108   -153.22258    122667.73   -37752.503    3576.1272    -41328.63    698.55327 
   37450    296.54205   -246.37497    122555.75   -37714.081    3619.7159   -41333.797    699.00726 
[...]
   90800     296.8389   -295.87087    123012.17    -37656.97    3623.3394    -41280.31    1742.0978 
   90850    297.86668    100.71245    122859.26   -37677.159     3635.885   -41313.044    1741.4932 
   90900    298.29487    172.72561    122701.36   -37663.041    3641.1117   -41304.153    1740.8967 
   90950    295.30483    82.032942    122559.86   -37667.546    3604.6139    -41272.16    1741.3327 
   91000    298.71267    277.92228    122431.73   -37659.345    3646.2115   -41305.557    1741.1213 
   91050    293.29729    246.74795    122347.94   -37690.801    3580.1091    -41270.91    1741.0442 
   91100    297.03244    14.690724    122307.38   -37669.923    3625.7018   -41295.625    1740.1315 
   91150    297.97174    153.16859    122285.72   -37664.624    3637.1674   -41301.792    1741.8811 
   91200    297.58794     581.6959    122295.92   -37672.942    3632.4825   -41305.425    1743.2779 
   91250    294.25388    181.20813    122363.95   -37657.508    3591.7856   -41249.294     1743.883 
   91300     299.7225    289.70277     122477.3    -37652.37    3658.5379   -41310.908    1746.5451 
   91350    296.03866    70.710445    122643.84   -37672.197    3613.5713   -41285.768    1749.6265 
   91400    298.31798   -3.4290566    122831.31   -37668.999    3641.3937   -41310.393    1753.5407 
   91450    304.28453   -284.20108    123020.54   -37672.535    3714.2239   -41386.759    1757.3962 
   91500    296.00854   -9.6685028    123179.39   -37683.467    3613.2038   -41296.671    1759.1356 
   91550     299.8974   -53.618054    123312.74   -37663.496    3660.6728   -41324.169    1761.5263 
   91600    297.47495   -483.96082    123433.24    -37676.77    3631.1033   -41307.874    1763.5848 
   91650    299.48506   -341.35679    123491.57   -37661.632    3655.6396   -41317.272    1764.4958 
   91700    297.08067   -279.57454    123475.32   -37666.591    3626.2905   -41292.882     1765.535 
   91750    297.76444   -375.26428    123387.03   -37661.766     3634.637   -41296.403    1766.1184 
   91800    299.82328   -320.09109    123238.07     -37652.8     3659.768   -41312.568    1766.6894 
   91850    295.18444   -5.1158963     123048.3   -37661.289    3603.1444   -41264.433    1765.1982 
   91900    300.76811    276.19721    122847.78   -37657.922     3671.301   -41329.223    1762.5774 
   91950    295.73232    69.031116    122671.15   -37661.341     3609.832   -41271.173    1761.3182 
   92000    297.50952    405.27413    122521.08    -37667.52    3631.5253   -41299.045    1762.9636 
   92050    297.47374    235.74781    122422.45    -37689.77    3631.0885   -41320.859    1763.6577 
   92100    298.93544    512.12193    122376.56   -37677.189    3648.9307    -41326.12    1764.0124 
   92150    295.35808    416.75387    122406.01   -37695.078    3605.2639   -41300.342    1765.2462 
   92200    296.61878    187.28751    122463.66   -37688.266    3620.6526   -41308.919     1766.045 
   92250    294.10745    95.851843    122554.08   -37663.803    3589.9982   -41253.801    1767.0898 
   92300     298.3799   -185.65032    122659.51   -37657.604    3642.1496   -41299.754    1769.2987 
   92350    294.01037   -258.77114    122737.65   -37644.802    3588.8133   -41233.616    1770.3513 
   92400    293.20488   -219.60191    122783.31     -37641.3    3578.9811   -41220.281    1771.9798 
   92450    299.21913    237.63892    122812.77   -37643.895    3652.3935   -41296.288    1773.3573 
   92500    294.20835    -109.4201    122848.66   -37664.308    3591.2299   -41255.538    1773.4721 
   92550    297.12594    81.597229    122873.32   -37679.737    3626.8432   -41306.581    1773.8705 
   92600    296.78317   -613.81791    122874.39   -37692.947    3622.6591   -41315.606    1775.0631 
   92650    296.04399    34.602461     122819.7   -37671.203    3613.6365   -41284.839    1775.6463 
   92700     296.5728    87.236767    122741.27     -37665.9    3620.0913   -41285.991      1776.53 
   92750    294.80545     114.3275    122659.07   -37660.921    3598.5182    -41259.44    1777.0607 
   92800    294.13434    536.50773     122605.3   -37667.537    3590.3265   -41257.864    1777.6265 
   92850     301.7206   -18.474595    122601.48    -37638.64    3682.9276   -41321.567    1779.0457 
   92900    300.46086    227.98867    122619.65     -37636.6    3667.5506   -41304.151    1779.6254 
   92950    302.05876   -65.026532     122671.1   -37621.017    3687.0552   -41308.072    1780.4182 
   93000    301.37612   -101.36803    122714.52   -37601.913    3678.7226   -41280.636    1781.1912 
   93050    297.92106    -53.71819    122762.38   -37576.048    3636.5488   -41212.597    1782.8233 
   93100    297.06733    -264.9799    122814.13   -37585.669    3626.1278   -41211.797     1783.917 
   93150    292.83654   -376.01834    122844.12   -37596.024    3574.4849   -41170.509    1784.4389 
   93200    293.42808    47.470855    122820.79   -37599.712    3581.7056   -41181.417    1785.9822 
   93250    298.10592    165.21994    122772.43   -37615.967    3638.8052   -41254.772    1787.6463 
   93300    301.03568     -190.106    122734.51    -37603.99    3674.5671   -41278.558     1787.845 
   93350     295.2102    198.45269    122687.87     -37607.5    3603.4588   -41210.959    1789.1352 
   93400    299.43822     85.00809    122646.94   -37599.805    3655.0678   -41254.873    1789.1383 
   93450    301.59559    73.523694    122630.87   -37595.626    3681.4016   -41277.028    1790.1736 
   93500    298.48061    59.440617    122643.51   -37585.498    3643.3788   -41228.877    1791.0748 
   93550     293.5338    48.683246    122656.81   -37587.912     3582.996   -41170.908    1793.0315 
   93600    299.57293    25.250113       122655   -37577.225    3656.7121   -41233.937    1792.8738 
   93650    298.80685    172.58684    122651.64   -37554.444     3647.361   -41201.805    1793.7193 
   93700    298.95917    412.25677    122677.07   -37537.784    3649.2204   -41187.004    1795.6548 
   93750    300.25892    18.269054    122737.05   -37551.341    3665.0856   -41216.426    1796.4954 
   93800    300.39553   -52.631937    122807.18   -37576.785    3666.7532   -41243.538    1798.3094 
   93850    300.26956    220.04686    122877.17   -37571.944    3665.2155   -41237.159    1800.7331 
   93900    301.26653   -51.596381    122970.25   -37583.391    3677.3849   -41260.776    1803.8894 
   93950    302.87505   -471.87192    123052.75   -37575.065    3697.0192   -41272.084    1805.2209 
   94000    304.35753   -490.96539    123080.84   -37583.973    3715.1149   -41299.088    1805.9155 
   94050    296.06771   -361.45278    123058.29   -37627.571     3613.926   -41241.497     1806.162 
   94100    299.49164   -88.950396    123001.75   -37646.113    3655.7199   -41301.833    1806.6987 
   94150    297.52126   -239.37712     122936.3    -37656.52    3631.6686   -41288.188    1807.6705 
   94200    294.83356    362.31268    122857.43   -37658.664    3598.8614   -41257.525    1807.3505 
   94250    297.89802    364.87898    122824.82   -37633.373    3636.2675    -41269.64    1807.0678 
   94300    301.59166    133.90025       122851   -37636.245    3681.3537   -41317.599    1807.5589 
   94350    293.57288   -130.63376    122910.97   -37636.382     3583.473   -41219.855    1807.4663 
   94400    292.46315   -347.79879    122971.52   -37640.841    3569.9272   -41210.769    1807.4587 
   94450    293.80889   -249.99376     123001.8   -37641.437    3586.3539   -41227.791    1808.6812 
   94500    292.79581    -209.2521    122995.61   -37637.068    3573.9878   -41211.056    1809.7529 
   94550    296.04017    9.8191666    122941.85   -37642.511    3613.5898   -41256.101    1810.0865 
   94600    296.35853    256.74115    122873.44    -37631.66    3617.4758   -41249.136    1810.4731 
   94650    295.73666   -37.544139    122822.12   -37645.768     3609.885   -41255.653     1810.239 
   94700    295.77932    68.214608    122795.19   -37636.242    3610.4058   -41246.648    1811.3835 
   94750    298.14144    72.683881    122795.97   -37653.734    3639.2388   -41292.973    1813.5311 
   94800     299.3157    92.844447    122816.26   -37688.035    3653.5723   -41341.608    1813.4286 
   94850    296.69166    23.962925       122852   -37694.133    3621.5421   -41315.675     1814.992 
   94900    295.24459   -57.080982    122900.67   -37703.027    3603.8786   -41306.906    1815.7351 
   94950    297.84705   -83.845175    122944.13   -37692.658    3635.6453   -41328.303    1816.9545 
   95000     297.0511   -20.058297     122979.7   -37696.569    3625.9296   -41322.498    1818.9359 
   95050    290.97189    95.724461    123028.69   -37720.677    3551.7243   -41272.402    1821.5444 
   95100    291.60746   -55.496245    123065.19   -37706.493    3559.4823   -41265.975    1823.6608 
   95150    290.54944   -87.758733    123054.29   -37720.906    3546.5677   -41267.474    1824.8887 
   95200    296.57542   -233.95272    123001.98   -37697.206    3620.1233   -41317.329    1825.4227 
   95250    297.13631   -110.48922    122921.36   -37724.566    3626.9697   -41351.536    1825.6039 
   95300    294.63743     -247.207    122820.93   -37717.981    3596.4673   -41314.448    1825.3344 
   95350    298.30932    278.26641    122707.04   -37744.044     3641.288   -41385.332    1824.6549 
   95400    294.73603      3.04461    122614.09   -37721.136     3597.671   -41318.807    1824.9707 
   95450    294.28204    166.56134    122520.41   -37718.079    3592.1294   -41310.208    1825.9353 
   95500    296.57192    237.47017    122439.44   -37701.907    3620.0806   -41321.988    1825.7085 
   95550    294.49348    4.0426734    122390.87   -37697.239    3594.7103   -41291.949    1825.7681 
   95600    292.97398    219.58649    122359.89    -37680.62    3576.1626   -41256.783     1827.272 
   95650    293.26344    330.83268    122357.01   -37689.009    3579.6959   -41268.705    1828.9527 
   95700     304.2885   0.60492717    122385.43    -37675.64    3714.2724   -41389.912    1830.7688 
   95750    305.25722    137.64307    122428.74   -37669.378     3726.097   -41395.475    1833.5476 
   95800    301.44941    31.367394    122500.04   -37650.529    3679.6173   -41330.146     1835.344 
   95850    299.02038    175.35587    122597.22   -37669.876    3649.9675   -41319.844    1838.0217 
   95900    292.89718    11.616477    122713.07    -37666.46    3575.2252   -41241.686    1839.1968 
   95950    294.28705     -363.647    122831.93    -37661.41    3592.1905   -41253.601    1842.6872 
   96000    297.43947   -45.628208    122941.74   -37648.002    3630.6702   -41278.672    1844.1688 
   96050    296.53823   -497.08478    123043.54   -37647.486    3619.6693   -41267.155    1847.0397 
   96100    298.25671   -257.10496    123102.83   -37648.716    3640.6458   -41289.362    1848.3271 
   96150     298.2815   -183.10557    123131.07   -37678.789    3640.9484   -41319.738     1849.963 
   96200     296.8843   -406.92969    123134.67   -37675.725    3623.8937   -41299.619    1851.4822 
   96250    294.57884   -63.840888    123101.91   -37674.665    3595.7521   -41270.417    1852.4762 
   96300    301.07188   -73.697589    123048.46   -37670.511    3675.0089    -41345.52    1852.6755 
   96350    291.11933   -159.08941    122984.78   -37661.368     3553.524   -41214.892     1853.234 
   96400     295.6321     90.47039    122916.17   -37673.057    3608.6087   -41281.666    1853.0215 
   96450    297.70844   -97.726567    122854.94   -37682.768    3633.9534   -41316.722    1851.7611 
   96500    300.13422    237.36842    122803.93   -37663.315    3663.5635   -41326.878    1852.3526 
   96550    297.33415    303.50232     122801.8    -37671.39    3629.3847   -41300.775    1854.5363 
   96600    295.86191   -105.47954    122848.89   -37685.289    3611.4139   -41296.703    1855.5721 
   96650    298.78925     154.0913    122903.67    -37713.52    3647.1462   -41360.667    1855.7922 
   96700    296.30901   -206.93727    122960.72   -37722.782    3616.8714   -41339.653    1856.8498 
   96750    292.00528   -212.71569    122996.37   -37725.818    3564.3382   -41290.156    1858.2187 
   96800    295.97907   -154.87783    123008.86   -37740.273     3612.844   -41353.117    1859.2074 
   96850    289.36871    57.460186    123002.06   -37763.159    3532.1552   -41295.315    1859.8879 
   96900    290.88567   -165.29571    122985.83   -37751.257    3550.6719   -41301.929    1861.3196 
   96950    291.77952   -351.86065    122952.65   -37744.696    3561.5826   -41306.278     1861.066 
   97000    291.54602   -36.396537    122889.18   -37724.723    3558.7323   -41283.456    1860.7587 
   97050    294.98377   -75.517443    122804.49    -37711.44    3600.6949   -41312.134    1861.4762 
   97100    296.12856   0.11893294    122717.34   -37705.035    3614.6688   -41319.704    1861.7543 
   97150    299.39297    170.32561    122659.03   -37720.493    3654.5155   -41375.008    1861.3482 
   97200    298.71386   -76.558006    122631.84   -37716.861     3646.226   -41363.087    1861.8979 
   97250     295.5752    20.376387    122592.06   -37703.686    3607.9142     -41311.6    1863.3866 
   97300    295.32577    477.56198    122546.59   -37698.172    3604.8696   -41303.042    1863.6089 
   97350    298.95116    319.40584    122544.32   -37681.874    3649.1226   -41330.997    1863.1749 
   97400    294.95484    25.494322    122592.64   -37677.249    3600.3418   -41277.591    1865.2663 
   97450    300.08771   -161.71512    122663.17   -37651.805    3662.9958   -41314.801    1867.8186 
   97500    295.75968    191.22767    122727.67   -37658.385     3610.166   -41268.551    1870.5665 
   97550    298.23129     36.89817    122792.21   -37662.098    3640.3356   -41302.434    1872.2816 
   97600    297.79553   -86.953949     122854.3   -37652.659    3635.0165   -41287.676    1874.3592 
   97650    301.05576    116.68044    122899.74   -37641.201    3674.8122   -41316.013    1877.2836 
   97700     300.9365   -176.04687    122937.15   -37635.996    3673.3565   -41309.353    1879.6608 
   97750    298.67475    1.7055352    122967.86    -37632.21    3645.7486   -41277.959    1880.1386 
   97800    300.18032    195.29553    122997.57    -37648.39    3664.1263   -41312.516    1881.2296 
   97850    300.52097   -213.38716    123057.89   -37659.149    3668.2843   -41327.433    1882.7939 
   97900    293.48314   -209.15876    123114.18   -37638.559    3582.3776   -41220.937    1883.1624 
   97950    298.78832   -79.612295    123138.77     -37638.7    3647.1349   -41285.835    1883.9949 
   98000    299.27008    43.374822    123134.09    -37620.69    3653.0155   -41273.706    1886.5563 
   98050    292.45437    112.79385    123132.22    -37628.17    3569.8201    -41197.99    1888.5134 
   98100    298.51588   -330.44548    123133.17   -37632.947    3643.8094   -41276.757    1888.8446 
   98150    294.42072   -298.86281    123097.27   -37637.021    3593.8221   -41230.843    1889.1499 
   98200    294.04112    93.760052    123022.04   -37628.113    3589.1886   -41217.301    1889.0665 
   98250    301.73757    155.54329    122942.12   -37601.991    3683.1346   -41285.125    1888.8562 
   98300    300.78233    152.54509    122870.87   -37576.031    3671.4746   -41247.506    1889.3371 
   98350    299.71769   -26.599271    122818.96   -37575.139    3658.4791   -41233.618    1889.6163 
   98400    299.31252   -51.324654    122772.87   -37560.531    3653.5335   -41214.065    1890.7395 
   98450    298.38774    52.790101    122718.86   -37587.528    3642.2453   -41229.773    1890.9754 
   98500    295.41455    282.90984     122661.3   -37599.046    3605.9532       -41205    1890.3378 
   98550    307.73801      123.326    122623.18   -37616.442    3756.3785   -41372.821    1890.5115 
   98600    301.17937    213.45359    122615.46   -37608.184    3676.3211   -41284.505     1889.694 
   98650    301.28616    142.23733    122634.86   -37591.953    3677.6246   -41269.578    1889.3515 
   98700    298.87465    158.67778    122671.07   -37578.436    3648.1887   -41226.625    1889.4287 
   98750    299.52508    6.6840568    122712.67   -37568.635     3656.128   -41224.763    1890.8613 
   98800    293.25389   -40.277339    122726.49   -37570.349    3579.5793   -41149.928     1891.764 
   98850    299.72777    -248.7791    122713.05   -37591.936    3658.6022   -41250.538    1892.0282 
   98900    297.41836    -83.58841    122659.74   -37585.384    3630.4126   -41215.797    1892.3799 
   98950    296.01824   -50.079892     122587.1   -37583.408    3613.3221    -41196.73     1892.151 
   99000    300.55508    76.396372    122532.43   -37568.796    3668.7007   -41237.497    1892.4708 
   99050    304.76462    8.8643106    122499.05   -37588.565    3720.0841   -41308.649    1892.8653 
   99100    298.89104   -8.0297818    122486.34   -37609.531    3648.3887    -41257.92    1893.8945 
   99150    303.24771    98.158895    122483.63   -37621.159    3701.5681   -41322.727    1893.5989 
   99200    297.41439     376.0255    122494.09   -37638.096    3630.3641    -41268.46    1895.1173 
   99250    297.01595    94.465688    122537.88    -37663.47    3625.5006    -41288.97    1895.9633 
   99300    297.12448   -60.863041    122602.14    -37666.14    3626.8254   -41292.965    1898.5101 
   99350    296.48736   -299.23051    122656.94   -37680.503    3619.0484   -41299.551    1900.4807 
   99400    291.33413   -77.682418    122678.73   -37722.153    3556.1459   -41278.299    1901.0048 
   99450    294.87559    147.60785    122676.02   -37711.742    3599.3744   -41311.117     1900.968 
   99500    300.59233   -35.985507    122680.19   -37721.608    3669.1554   -41390.763     1901.919 
   99550    295.68748     236.7704    122681.21   -37728.621    3609.2848   -41337.906    1903.6607 
   99600    290.75646    177.26601    122694.18   -37744.423    3549.0947   -41293.518    1905.1827 
   99650    293.61229    141.28321    122719.79    -37718.35    3583.9541   -41302.304    1907.9642 
   99700    298.76047   -127.23892    122754.81   -37701.639     3646.795   -41348.434    1909.8637 
   99750    292.28707   -44.993837    122779.63   -37707.213    3567.7779   -41274.991    1910.5306 
   99800    298.17498    42.903094    122805.41   -37713.751    3639.6481     -41353.4    1911.2061 
   99850    294.38617    119.31026    122853.15   -37731.507    3593.4003   -41324.907    1913.6783 
   99900    301.42073    101.63885    122908.55   -37734.747    3679.2671   -41414.014    1914.3267 
   99950    295.42049   -125.47305    122979.73   -37715.652    3606.0257   -41321.677    1916.6969 
  100000    297.03327    308.66891    123038.51   -37724.809     3625.712   -41350.521    1918.1089 
Loop time of 264.187 on 8 procs for 100000 steps with 4096 atoms

Performance: 163.520 ns/day, 0.147 hours/ns, 378.519 timesteps/s
99.3% CPU use with 8 MPI tasks x no OpenMP threads

MPI task timing breakdown:
Section |  min time  |  avg time  |  max time  |%varavg| %total
---------------------------------------------------------------
Pair    | 215.16     | 221.38     | 225.96     |  22.9 | 83.80
Neigh   | 6.6172     | 6.8492     | 6.9694     |   4.5 |  2.59
Comm    | 26.775     | 31.47      | 37.94      |  62.9 | 11.91
Output  | 0.13719    | 0.14049    | 0.16185    |   2.2 |  0.05
Modify  | 3.4881     | 3.548      | 3.5966     |   2.1 |  1.34
Other   |            | 0.7974     |            |       |  0.30

Nlocal:    512 ave 525 max 491 min
Histogram: 1 0 0 0 1 2 0 2 0 2
Nghost:    1236.75 ave 1261 max 1222 min
Histogram: 1 2 1 1 1 1 0 0 0 1
Neighs:    0 ave 0 max 0 min
Histogram: 8 0 0 0 0 0 0 0 0 0
FullNghs:  17122.5 ave 17738 max 16330 min
Histogram: 1 0 1 0 1 2 0 1 0 2

Total # of neighbors = 136980
Ave neighs/atom = 33.4424
Neighbor list builds = 7375
Dangerous builds = 0
write_restart   prod.${NAME}-p1t${TEMP}.rst
write_restart   prod.liquid_msd-p1t${TEMP}.rst
write_restart   prod.liquid_msd-p1t298.rst

Total wall time: 0:13:11
