LAMMPS data file via write_data, version 12 Dec 2018, timestep = 725

4096 atoms
1 atom types

0.0000000000000000e+00 5.0000000000000000e+01 xlo xhi
0.0000000000000000e+00 5.0000000000000000e+01 ylo yhi
0.0000000000000000e+00 5.0000000000000000e+01 zlo zhi

Masses

1 18.015

Atoms # atomic

25 1 5.9669885920157884e-01 8.0059054788022688e-01 2.0267737862943065e+00 0 0 0
113 1 6.8206057654833021e+00 4.7519540381492276e-01 1.5547858232664566e+00 0 0 0
335 1 6.8619128186399170e+00 1.3753086344217098e+00 4.1466274271619676e+00 0 0 0
1116 1 2.2462210737531915e+01 2.4388019396806566e+01 7.5273182893551507e+00 0 0 0
185 1 8.5858096609815941e+00 3.0754015501392868e+00 5.5192244107387021e+00 0 0 0
235 1 9.4467533255541891e+00 4.4097451627391804e+00 8.8399609213208230e-01 0 0 0
7 1 1.3974096016478363e+01 2.2406255071583647e+00 1.3392222970729035e+00 0 0 0
103 1 1.0025235109578754e+01 2.5746135125615996e+00 3.0085911352506347e+00 0 0 0
161 1 1.2685083944084015e+01 2.9257421883796382e+00 3.8223574448949087e+00 0 0 0
61 1 2.4805246895138698e+01 1.0387428429025382e+01 1.1696317334498403e+01 0 0 0
296 1 1.6518517285088517e+01 6.7948709262595952e-01 1.4207510904336218e+00 0 0 0
330 1 1.6158516061624915e+01 4.4556295818970924e+00 2.9654080017289219e-01 0 0 0
158 1 1.6987554704275336e+01 3.3867253242175424e+00 2.9851067149850588e+00 0 0 0
805 1 1.3279030772806848e+01 1.8478431119033697e+01 1.7786267888858374e+00 0 0 1
93 1 2.0756093144131444e+01 4.2593967759617002e-01 1.8137524896643722e+00 0 0 0
148 1 2.3609757406556145e+01 3.0635052628481989e+00 6.7731210945328291e-01 0 0 0
173 1 1.9564277042802740e+01 3.0979583381490938e+00 4.0099574660067372e+00 0 0 0
279 1 2.3586653470821698e+01 5.1661280520598951e-01 1.7227560455573430e+00 0 0 0
4 1 4.3018494369530274e+00 3.8347283194386272e+00 1.9467186427570895e+00 0 0 0
40 1 5.6675686136721000e+00 6.0514453734401004e+00 2.6790359960817094e+00 0 0 0
1153 1 2.3685677674570222e+01 2.4747418473150240e+01 2.2002085297107778e+00 0 0 0
55 1 1.2491886959354378e+01 5.6808720503035799e+00 3.4668500664452928e+00 0 0 0
44 1 2.4083692453977115e+01 2.4623615157174232e+01 1.5003963169856551e+01 0 0 0
47 1 1.7470902206868466e+01 6.0127576486802479e+00 3.9671010786946934e+00 0 0 0
1227 1 8.8356468560057184e+00 2.4162905184767869e+01 9.6968704614438597e+00 0 0 0
334 1 2.1620199019652322e+01 4.0882731285344391e+00 2.3470843920416167e+00 0 0 0
130 1 2.1507188598580553e+00 9.7939133554956364e+00 2.7766456834045092e+00 0 0 0
211 1 5.5681343374314167e+00 7.0185047327021977e+00 2.0607800926018738e-01 0 0 0
110 1 5.7200598526826756e+00 9.5581180466719733e+00 1.0905762417271667e+00 0 0 0
1263 1 2.1868673795025025e+01 2.4467940942797757e+01 4.7619856230592621e+00 0 0 0
101 1 1.1647683945126065e+01 8.3758410244102404e+00 3.2644177535045285e+00 0 0 0
290 1 1.3658173734884034e+01 9.9829383481531657e+00 2.5965978837726240e+00 0 0 0
298 1 9.6706784970572635e+00 8.1940697687394248e+00 1.5323082517463915e+00 0 0 0
84 1 1.7816747453785723e+01 9.4054567500205177e+00 7.8263975112737572e-01 0 0 0
205 1 2.1869292151972381e+01 6.8753508576015649e+00 2.1040284072829420e+00 0 0 0
224 1 2.0796372622258808e+01 9.8230153880025686e+00 2.5783010965746929e+00 0 0 0
942 1 4.8315280574722594e+00 1.9118822988175794e+00 1.0432581080162950e-01 0 0 1
223 1 6.7777657236160715e-01 1.1241034243689173e+01 4.3723148974167358e+00 0 0 0
297 1 1.0598706455303391e+01 1.3120802795914887e+01 1.9486925120413432e+00 0 0 0
1 1 1.7508875484167746e+01 1.3688677124855463e+01 3.1912960409662661e-01 0 0 0
60 1 1.7471767521064283e+01 1.0363776916375686e+01 3.4108525908543870e+00 0 0 0
180 1 1.7152004556054003e+01 1.2994093631041302e+01 2.9890435205590014e+00 0 0 0
280 1 2.2910494974262168e+01 1.1599863706501690e+01 1.2969752229465006e+00 0 0 0
157 1 2.7106677378318360e+00 1.4803054692215113e+01 2.1111926107534895e+00 0 0 0
1141 1 2.5022033378384423e+00 2.3707856854134860e+01 1.5132582418578661e+01 0 0 0
2038 1 1.7288722216255203e+00 1.1095001297645544e+01 4.4662913530133302e-01 1 0 0
21 1 6.6229882743628696e+00 1.7194920284871632e+01 2.4334149353439911e+00 0 0 0
38 1 6.0976378268020071e+00 1.5649369565764049e+01 3.7622995309742402e-01 0 0 0
83 1 4.9328034555943434e+00 1.3475932843796810e+01 1.4278933701470859e+00 0 0 0
106 1 4.6424968668306188e-01 2.2005226444635682e+01 1.8509922385628970e+00 0 0 0
313 1 1.0496561336001276e+01 1.5808230090300018e+01 1.1510447631409406e+00 0 0 0
74 1 1.2572263532113626e+01 1.6149388922567752e+01 3.0099625209218988e+00 0 0 0
141 1 1.7324228325511509e+01 1.6381416812710899e+01 2.1526274026467401e-01 0 0 0
237 1 1.3812980983537875e+01 1.3838390241133592e+01 4.4837386623372522e-01 0 0 0
176 1 2.1644887257862234e+01 1.7422927992092564e+01 4.5643451682361587e+00 0 0 0
463 1 1.9944457414125829e+01 3.4386760274224639e+00 1.6473311644194549e+01 0 0 0
306 1 4.6893118270630749e+00 2.1597219975700934e+01 1.2397043705671200e+00 0 0 0
76 1 4.8902245284975123e+00 1.9201922021727629e+01 2.5287649977658275e+00 0 0 0
2349 1 9.3505340790630664e-01 1.0316112944631071e+01 6.8265947036823800e+00 1 0 0
144 1 8.9548358618156723e+00 1.8269136687469302e+01 1.6086666115267820e+00 0 0 0
316 1 7.8575278128454107e+00 1.4786942916590149e+00 9.8379849043369578e+00 0 0 0
268 1 9.6820905070719494e+00 2.0503908959314007e+01 3.1130869112243276e+00 0 0 0
105 1 1.2310122713696700e+01 2.0112556159744340e+01 3.8796291338257261e+00 0 0 0
210 1 1.3937764103060919e+01 2.2057142824712919e+01 3.0189586446519856e+00 0 0 0
302 1 1.5443004161730398e+01 2.0273817755353946e+01 1.6316987753149483e+00 0 0 0
48 1 2.3042457911001996e+01 1.9750043740529783e+01 4.8622129777884400e+00 0 0 0
53 1 2.3307094480002323e+01 1.7340721052250540e+01 1.0392466526695976e+00 0 0 0
923 1 8.2280764856475503e+00 1.0383339068522497e+01 1.1222572413204353e+00 0 0 1
811 1 1.8954846036534317e+01 7.1730432070495205e+00 2.0034968932299697e+00 0 0 1
252 1 2.9194951937751656e+00 2.2934739064965434e+01 2.7434577498316615e+00 0 0 0
248 1 6.7990217373830557e+00 2.3404476776970039e+01 1.0288063365422617e+00 0 0 0
221 1 1.7535576788924388e+01 2.4069074047440903e+01 3.5560910549591274e+00 0 0 0
145 1 2.3277557709562306e+01 2.2272540347117747e+01 1.2464573595782265e+00 0 0 0
244 1 2.1435183790642295e+01 2.0890458413395653e+01 2.7835252960273058e+00 0 0 0
186 1 4.3562622065576804e+00 2.4015633722093659e+00 4.2013573046512311e+00 0 0 0
108 1 6.5069133635897414e+00 4.3627352754360249e+00 6.9724643107559228e+00 0 0 0
234 1 1.0084111244264683e+01 1.1919829897936409e+00 6.8144131760997295e+00 0 0 0
33 1 1.5447978842815811e+01 2.4015506260040316e+00 5.0676017363231285e+00 0 0 0
191 1 1.9896389481868574e+01 3.3342898195498788e-01 4.6134173800961555e+00 0 0 0
340 1 1.7562432812896908e+01 7.2372037102737852e-01 6.2810400229721344e+00 0 0 0
82 1 4.0046862966676837e+00 4.6101100351174740e+00 5.9335753936663993e+00 0 0 0
72 1 8.4182974672692357e+00 6.1235613716640449e+00 2.7486321762367187e+00 0 0 0
309 1 1.1198335342304855e+01 4.8175582172401272e+00 8.1898271372324078e+00 0 0 0
337 1 1.0002202968181908e+01 5.5353858531068294e+00 4.9440741941269444e+00 0 0 0
56 1 1.7792647939957231e+01 6.3095533301110356e+00 6.8771815108674188e+00 0 0 0
149 1 2.2664482569388138e+01 4.7997304598425536e+00 6.3016466067019410e+00 0 0 0
283 1 2.3281426735354959e+01 2.9238322969122992e+00 4.4614186929322424e+00 0 0 0
143 1 3.6986207208073085e+00 6.9836555971621008e+00 4.5537862336366732e+00 0 0 0
308 1 4.8361700787235451e+00 9.9514000914525589e+00 3.6542234108740503e+00 0 0 0
17 1 1.1070431201518012e+01 9.1898943329009128e+00 5.7522266509353637e+00 0 0 0
238 1 1.5241984437731933e+01 9.1579520501636331e+00 4.5267391470246805e+00 0 0 0
260 1 1.4845480286415627e+01 6.4757217983581725e+00 4.6259937635400110e+00 0 0 0
62 1 2.3711692641668147e+01 9.2924146059546366e+00 7.3290628410655243e+00 0 0 0
232 1 2.4166193353519418e+01 6.9815649916689768e+00 6.0134975724157300e+00 0 0 0
169 1 8.4426858633665258e+00 1.2028899943744404e+01 3.3646520023829454e+00 0 0 0
198 1 4.8369227129546513e+00 1.3002190608404248e+01 6.7622393483163492e+00 0 0 0
241 1 5.7954929845243797e+00 1.2680310227419719e+01 3.9463163034768725e+00 0 0 0
29 1 9.6348097531390149e+00 1.1429836717231362e+01 5.7783762923809361e+00 0 0 0
26 1 1.2604458446132874e+01 1.2321238262961320e+01 3.6459894444731242e+00 0 0 0
338 1 1.4559734996073022e+01 1.4099831335986909e+01 3.2902352932535708e+00 0 0 0
177 1 1.7850158386501136e+01 1.6052846241761646e+01 4.9821982961973257e+00 0 0 0
271 1 1.8658521369262047e+01 1.3429914024370561e+01 5.3780293940976014e+00 0 0 0
123 1 2.1395020246425858e+01 1.3237423095164250e+01 5.6478127229413486e+00 0 0 0
395 1 2.3594203070042273e+01 1.6268668419539278e+01 1.5568534805990721e+01 0 0 0
206 1 2.2962000299105782e+01 1.4988546026688271e+01 4.3610978932051001e+00 0 0 0
240 1 2.2041216842241884e+01 1.0595839538745697e+01 5.3695051127336679e+00 0 0 0
249 1 2.4201918270923876e+01 1.0434553196390855e+01 3.5804382071096539e+00 0 0 0
2 1 5.8863212274279175e-01 1.8653882590746051e+01 4.9717131976812698e+00 0 0 0
140 1 2.7286629934471049e+00 1.7615564032509457e+01 2.0443007613889947e+00 0 0 0
34 1 2.5720418881555993e+00 1.4636186052129887e+01 6.5888363403919881e+00 0 0 0
67 1 5.5514472837061835e+00 1.5668138850390951e+01 4.4494486847086883e+00 0 0 0
16 1 1.1558865568180371e+01 1.5956461643327987e+01 5.5300704369998943e+00 0 0 0
269 1 1.8163946166192652e+01 1.7360643831071052e+01 2.6386561918136224e+00 0 0 0
41 1 2.4115610038807112e+00 2.0528294699286050e+01 8.2471632654801716e+00 0 0 0
810 1 1.9085240666642328e+01 2.1748076379308266e+01 7.1662024520743950e-01 0 0 1
193 1 3.0150054773251806e+00 1.7062784087514828e+01 5.1046074123225393e+00 0 0 0
314 1 8.0811567100540638e-01 2.1530374893561632e+01 5.5725210644417871e+00 0 0 0
320 1 3.5479835151802641e+00 2.2279719219180301e+01 5.3158565841155321e+00 0 0 0
607 1 1.1794158194206091e+01 1.6865089820482620e+01 1.6150021779535852e+01 0 0 0
163 1 4.0481032875721130e+00 1.8933286510953486e+01 6.7521476551711093e+00 0 0 0
168 1 5.5052844041531008e+00 2.0337674404496838e+01 4.8652036591324341e+00 0 0 0
18 1 8.1742245191789813e+00 1.9605238184259111e+01 5.9004567317923762e+00 0 0 0
88 1 9.5746492991861381e+00 2.2071377150311072e+01 6.3498717297670915e+00 0 0 0
324 1 1.7720906929358730e+01 1.9825811311137766e+01 5.6311364859150466e+00 0 0 0
204 1 1.9274599241603241e+01 2.1706727494853247e+01 6.5927886496011219e+00 0 0 0
96 1 4.9998313182332668e+00 2.4232337782331708e+01 6.7845746878981847e+00 0 0 0
222 1 7.4109061232265754e+00 2.2215033500958494e+01 3.5469323475380148e+00 0 0 0
305 1 9.5171071184386289e+00 2.4927618541363433e+01 5.8955516687573972e+00 0 0 0
15 1 1.5241773902774970e+01 2.3396537982085782e+01 4.9262884631893842e+00 0 0 0
291 1 1.9875908466437114e+01 2.2705230659699172e+01 4.2096087226994117e+00 0 0 0
329 1 1.8088376670001683e+01 2.3519946285982773e+01 8.3469880265829985e+00 0 0 0
127 1 2.3560187295723427e+01 1.1644624133960185e+01 1.6424895417094120e+01 0 0 0
138 1 1.3694688997010058e+00 2.6644738980933913e+00 5.7356235637925836e+00 0 0 0
304 1 3.6058518245426026e+00 3.3012873476311215e+00 1.0471558488800225e+01 0 0 0
11 1 5.5657464281133819e+00 2.3389378831853520e+00 8.6224740549466148e+00 0 0 0
284 1 9.5820495532724372e+00 3.6514541996677257e+00 1.0141841663616995e+01 0 0 0
288 1 1.2444586827970346e+01 2.6895291959200831e+00 6.9302679750556715e+00 0 0 0
2304 1 1.4665371109201537e+00 1.3810273916918732e+01 4.2854576466777745e+00 1 0 0
181 1 1.3515952082649994e+01 1.3441360212372655e+00 9.1218845282862997e+00 0 0 0
202 1 1.1744291882687840e+01 2.1411575675426739e+00 1.1125632060426915e+01 0 0 0
52 1 1.3397845435418267e+01 4.5009259775718409e+00 1.1314898075373920e+01 0 0 0
63 1 1.5821391849063598e+01 3.7002097532144176e+00 1.2396409779919228e+01 0 0 0
156 1 1.5954183870722218e+01 2.0000596892759201e+00 1.0228160436629141e+01 0 0 0
194 1 1.5468749882109696e+01 4.6642436318834495e+00 6.9361237157540545e+00 0 0 0
2094 1 1.1577323318986246e+00 7.1686189409580807e+00 3.1204661279854884e+00 1 0 0
104 1 1.9931927957260637e+01 4.5411365403320625e+00 6.3713678311195316e+00 0 0 0
333 1 1.7438067273194779e+01 2.8295602103579607e+00 8.1425974159612036e+00 0 0 0
886 1 1.7830614952902224e+01 2.0064410125389070e+01 2.8683854363672792e+00 0 0 1
78 1 2.2501921432760891e+01 5.0090121712472624e-01 5.3756781870042412e+00 0 0 0
118 1 2.3069876775904895e+01 3.9260870871734026e+00 8.7515098279227459e+00 0 0 0
293 1 2.0288051150016809e+01 3.0389302698935419e+00 8.8696648915146064e+00 0 0 0
98 1 4.0159215622464267e-01 1.9190403112320219e+01 2.1957919567642765e+00 0 0 0
227 1 2.6822196373708893e+00 4.8141018963362550e+00 8.3249587087006915e+00 0 0 0
245 1 2.5529336262593616e+00 7.3713125980043603e+00 8.9349231458723164e+00 0 0 0
6 1 7.2036999107321780e+00 6.9665227488847536e+00 7.6623388215786852e+00 0 0 0
125 1 1.2349804812374996e+01 6.8662625269056976e+00 1.2074451948015223e+01 0 0 0
73 1 2.4358424441879400e+01 5.9340917416989898e+00 1.0138188441706800e+01 0 0 0
301 1 3.3076762211128554e+00 8.8357997476831525e+00 6.8721225172467522e+00 0 0 0
216 1 6.1719368484009118e+00 9.1604943421266611e+00 6.3173905731438253e+00 0 0 0
114 1 9.9041553392707353e+00 7.1801690071013464e+00 7.2922859207520929e+00 0 0 0
115 1 9.3949964413082032e+00 1.0172731238201104e+01 1.0245436682302010e+01 0 0 0
230 1 6.6143060261567044e+00 7.4502189158494794e+00 1.0272446389625225e+01 0 0 0
13 1 1.3956606489293042e+01 8.6939610580994113e+00 8.8135670920056093e+00 0 0 0
20 1 1.3584287348468607e+01 1.0025504751584437e+01 6.4674648701839796e+00 0 0 0
226 1 1.1193218855526039e+01 8.1175173787632691e+00 9.7753084256503655e+00 0 0 0
262 1 1.3735733710027393e+01 5.6880119680286620e+00 8.8122473476924057e+00 0 0 0
225 1 1.6806238269117497e+01 8.4699927214742168e+00 8.5500020206912737e+00 0 0 0
289 1 1.6842253267517144e+01 7.9884466787024850e+00 1.1227662814427518e+01 0 0 0
69 1 2.3477581133477720e+01 8.5978295958322928e+00 1.0008168370236346e+01 0 0 0
22 1 4.1608705595082105e+00 1.1017584846137298e+01 8.5276798157400169e+00 0 0 0
133 1 3.6924467484026902e-01 1.3668630842225420e+01 8.0629657558786256e+00 0 0 0
146 1 7.8159552025316223e+00 1.0977510873044038e+01 7.8730144324434335e+00 0 0 0
209 1 7.2040397128349234e+00 1.3734965274988841e+01 8.3347212998629683e+00 0 0 0
300 1 1.1154066758303232e+01 1.2277900785429125e+01 1.0361920820140954e+01 0 0 0
203 1 1.4101285189845422e+01 1.2542335378924124e+01 7.5934209505699961e+00 0 0 0
212 1 1.1718702001469934e+01 1.3317205505298181e+01 6.2603143513757162e+00 0 0 0
229 1 1.0062636611914364e+01 1.3901287627197572e+01 8.4615035473934501e+00 0 0 0
129 1 1.6834898890121728e+01 1.3558079316984182e+01 7.7454400883880954e+00 0 0 0
259 1 1.9159982789801475e+01 1.0253865545287441e+01 5.5967456731352181e+00 0 0 0
213 1 1.8088274615692541e+01 1.0918635898454992e+01 8.0386340943822834e+00 0 0 0
219 1 2.4835515467054510e+01 1.2746020717966614e+01 7.8240816872510717e+00 0 0 0
307 1 2.2115878441698719e+01 1.3170088782842338e+01 8.1949414056560794e+00 0 0 0
159 1 1.0456171279355675e-01 1.7587709964667823e+01 1.0339606914378026e+01 0 0 0
12 1 7.0066598944488030e+00 1.5960261013939693e+01 6.7476927922244361e+00 0 0 0
151 1 9.3714538268605203e+00 1.7161688628066919e+01 6.6457977145906870e+00 0 0 0
323 1 1.0273171575204293e+01 1.6624892630705467e+01 9.3792465630361956e+00 0 0 0
147 1 1.3582000078440361e+01 1.7068470763446005e+01 6.8753907364070281e+00 0 0 0
164 1 1.5334751417583423e+01 1.5263087875015245e+01 5.7921709637672665e+00 0 0 0
9 1 1.7498953311440154e+01 1.5754736772268489e+01 9.5960713742163364e+00 0 0 0
27 1 1.9462941410420889e+01 1.7705880379642384e+01 6.2791042353058355e+00 0 0 0
214 1 2.0076594949737057e+01 1.9191524356562883e+01 1.0339729929629845e+01 0 0 0
255 1 2.2248190747824275e+01 1.5772407379695961e+01 9.1631107141451622e+00 0 0 0
257 1 1.9797282290494771e+01 1.6975739677758764e+01 8.8614081167643679e+00 0 0 0
154 1 2.4270105092279596e+01 1.7779863411739925e+01 8.7058392047289033e+00 0 0 0
287 1 6.4790877317184314e-01 2.1238501121479075e+01 1.1831344585906708e+01 0 0 0
1019 1 2.0327703971207775e+01 2.6846939102013240e-01 8.3241809914663722e+00 0 1 0
97 1 5.8173725406936327e+00 1.7791348219204661e+01 8.3030812070947047e+00 0 0 0
331 1 7.2765057714499140e+00 2.2702681945026232e+01 8.0541031375853880e+00 0 0 0
77 1 9.7030532108149146e+00 1.9345768002939614e+01 9.5302275477834062e+00 0 0 0
319 1 7.2875169231694086e+00 1.9993649758940716e+01 8.7381347652103152e+00 0 0 0
59 1 1.3267734859216649e+01 1.9757672961832746e+01 6.4221262163949460e+00 0 0 0
122 1 1.1417520974175718e+01 2.0958802759233755e+01 8.1519640321352895e+00 0 0 0
172 1 1.6091847168511045e+01 2.1660556075681711e+01 9.3391488794820798e+00 0 0 0
126 1 1.6050156126545097e+01 1.7849180797092238e+01 1.0945052020236535e+01 0 0 0
261 1 2.1039375935047794e+01 2.0969690716204081e+01 8.5885087336734660e+00 0 0 0
2181 1 2.3010646296443770e+01 1.1104279273364305e+01 1.3772828439798010e+01 0 0 0
57 1 3.1924712570797373e+00 2.3252691378414124e+01 8.8436169263979210e+00 0 0 0
258 1 1.1422096776516812e+01 2.3457068197524581e+01 9.2899581218379446e+00 0 0 0
270 1 1.5533599686459665e+01 2.1212649012776232e+01 6.6257506883320874e+00 0 0 0
217 1 2.0706201374950528e+01 2.3495281398246892e+01 9.6120193382943970e+00 0 0 0
265 1 1.7636769444821351e+01 2.0225193787862061e+01 1.1191812019004896e+01 0 0 0
2233 1 1.9432553008778439e-01 7.6114291790758957e+00 3.0209414138271518e-01 1 0 0
160 1 1.6443138495990424e+00 1.5617398469752031e+00 1.1129420247700946e+01 0 0 0
86 1 5.5572559720151259e-02 4.0553558715864861e+00 8.0921943309312052e+00 0 0 0
49 1 7.7010815098093959e+00 5.2317810538191347e+00 1.1542550681542284e+01 0 0 0
267 1 6.9573660966324384e+00 1.0022467505023716e+00 1.2592940106694201e+01 0 0 0
5 1 1.3276110034077433e+01 1.4720503580545676e+00 1.3467081637369558e+01 0 0 0
50 1 1.7866145872668991e+01 5.5048150765822177e+00 1.2231443307323929e+01 0 0 0
272 1 1.9977398834319228e+01 3.6740007864651489e+00 1.1543327524944237e+01 0 0 0
311 1 1.9410308538757644e+01 1.0917882355439099e+00 1.2339429116746441e+01 0 0 0
42 1 2.2412051499821512e+01 3.3644295371042507e+00 1.2921484521487590e+01 0 0 0
68 1 2.3292010823475021e+01 7.1062738594429853e-01 1.2438867690806751e+01 0 0 0
139 1 2.1054336846709085e+00 5.3230353588265951e+00 1.2080392675852661e+01 0 0 0
2760 1 2.3341883547492746e+01 1.4527401571942553e+01 1.7217085771401219e+00 0 0 1
220 1 8.4932178046035811e-01 7.9666841849077743e+00 1.3169462616143205e+01 0 0 0
162 1 5.7223032252724559e+00 3.4446974098562309e+00 1.2259678605262890e+01 0 0 0
256 1 8.4267922864429554e+00 7.0050983681120833e+00 1.3458888511177795e+01 0 0 0
28 1 3.9289755099427977e+00 9.4428593505221752e+00 1.3231989495893540e+01 0 0 0
99 1 3.9682674853572402e+00 7.4404738416415848e+00 1.1221998741022324e+01 0 0 0
215 1 1.7826675364420743e+00 1.1261344665526053e+01 1.3757533891510755e+01 0 0 0
239 1 2.0817368157961394e-01 1.0005639963090852e+01 1.1233699669758332e+01 0 0 0
153 1 8.6539423404496087e+00 9.6125108707785003e+00 1.2872143174820836e+01 0 0 0
281 1 1.4552485866589855e+01 8.1914694983788170e+00 1.2916838594265842e+01 0 0 0
208 1 1.5297654152430514e+01 1.1657842950022401e+01 1.2346776038873225e+01 0 0 0
218 1 1.7751344495712310e+01 1.0434896317652790e+01 1.2264557369655360e+01 0 0 0
71 1 1.8790910423907071e+01 9.3316580167271255e+00 1.4455004231125615e+01 0 0 0
171 1 2.0317043820044450e+01 1.1418919872109189e+01 9.5311203107213132e+00 0 0 0
200 1 2.0974875827632964e+01 9.0341996678455931e+00 1.0883126868209756e+01 0 0 0
197 1 1.9849925150464475e+01 2.3277508662034297e+01 1.5562528063400356e+01 0 0 0
286 1 2.1342704758271104e+01 8.9879640593723895e+00 1.3695958015916952e+01 0 0 0
201 1 2.3490058626400354e+00 1.3115470245778811e+01 1.1819564832817040e+01 0 0 0
79 1 5.1304748809588929e+00 1.2714521075901805e+01 1.2148831275380482e+01 0 0 0
325 1 6.0039253899091021e+00 1.0367661191164547e+01 1.0533471055309143e+01 0 0 0
165 1 1.1454376460246650e+01 1.4095526327325050e+01 1.2356149339407828e+01 0 0 0
207 1 1.3701606742051251e+01 1.1315094993440358e+01 1.0069347535361764e+01 0 0 0
275 1 1.5655497209293282e+01 1.4228450273816977e+01 1.3101467647296955e+01 0 0 0
135 1 1.9397129336015723e+01 1.2626265420692723e+01 1.1748075619675843e+01 0 0 0
310 1 5.1785999470812287e+00 1.6838214437874878e+01 1.0731268378631114e+01 0 0 0
190 1 6.6822635907482129e+00 1.4563614826311229e+01 1.0880617914504926e+01 0 0 0
303 1 9.1527383839823280e+00 1.5571652545133132e+01 1.1756130293451996e+01 0 0 0
92 1 1.3682055295455967e+01 1.5872231940339564e+01 1.2156066740637113e+01 0 0 0
119 1 1.3599139145206422e+01 1.7754556475256198e+01 1.4247902106112615e+01 0 0 0
253 1 2.3295218807943598e+01 1.4589217828334023e+01 1.1423011524590338e+01 0 0 0
31 1 2.5904261302336935e+00 1.7554887139834587e+01 1.1394523342405588e+01 0 0 0
10 1 2.9972124216265557e+00 2.0132361248948719e+01 1.0885931060378050e+01 0 0 0
23 1 4.6430528107286051e+00 2.0573541105908600e+01 1.4212998889408786e+01 0 0 0
124 1 5.2764796219737473e+00 2.3357607113531333e+01 1.0700310381589963e+01 0 0 0
175 1 5.8074558682620996e+00 2.0622728571044330e+01 1.0992551512970898e+01 0 0 0
264 1 9.7603376230725658e+00 1.9826662032884204e+01 1.2145071246275442e+01 0 0 0
278 1 7.7636686017499983e+00 2.1484558935251044e+01 1.2948050279909593e+01 0 0 0
51 1 1.2403314160619580e+01 2.0556743553705257e+01 1.1919227377163507e+01 0 0 0
183 1 1.2949664777754851e+01 1.6873616059652768e+01 9.5278600252958494e+00 0 0 0
39 1 1.3872738327407765e+01 1.9562088307447134e+01 9.8533593769147387e+00 0 0 0
166 1 1.2139524578606080e+01 5.1097648135616280e+00 7.2499358311339801e-01 0 0 0
75 1 2.2869721862831863e+01 2.0854731129543229e+01 1.3413367026432304e+01 0 0 0
233 1 2.1575989999486666e+01 1.8520438900140888e+01 1.2540675632649338e+01 0 0 0
251 1 2.3295801971877523e+01 2.0152605877326550e+01 7.5117978476646448e+00 0 0 0
1816 1 1.7335013692459448e+01 2.3876694601472142e+01 8.3393321752296179e-01 0 0 1
120 1 1.0851929206339308e+01 2.4247080595491120e+01 1.3735203250121550e+01 0 0 0
178 1 1.2450716659105952e+01 2.3185716038932824e+01 1.1692347221620398e+01 0 0 0
64 1 1.6165867145335660e+01 2.1702768811968671e+01 1.3216557684766052e+01 0 0 0
136 1 1.5115697449309208e+01 2.3428636142141261e+01 1.1232406224586661e+01 0 0 0
339 1 1.9280630853742970e+01 2.2895339437242153e+01 1.2034264676944145e+01 0 0 0
855 1 2.0876048551666610e+01 1.8248746571183258e+01 1.9341908060726545e+00 0 0 1
116 1 7.2714221769127318e-01 2.2980661178954520e+00 1.3632894990719091e+01 0 0 0
327 1 2.6648086161044602e+00 1.6098848656359210e+00 1.5482410788781012e+01 0 0 0
2315 1 2.4972872979322123e+01 6.6885376242711647e+00 1.4371829509132287e+01 0 0 0
132 1 4.7826394681853008e+00 3.3641905187597363e+00 1.4813854349530924e+01 0 0 0
134 1 9.6814523304305720e+00 3.1735979483219801e-01 1.5086997930681488e+01 0 0 0
1108 1 4.8189627086010800e+00 1.1989689196369031e-01 7.0460945857795263e+00 0 1 0
292 1 7.2054628860299843e+00 1.3723770246312728e+00 1.5580382906239752e+01 0 0 0
242 1 1.1853865866900120e+01 1.8793685466367587e+00 1.5719016728860009e+01 0 0 0
858 1 1.2828408668861893e+01 2.3176765441098315e+01 9.5003152006271485e-01 0 0 1
236 1 1.9061820406632240e+01 1.2643377885131215e+00 1.5025016722039277e+01 0 0 0
36 1 2.6153919595588979e+00 5.2362499413123427e+00 1.4806181000626164e+01 0 0 0
1188 1 8.3948128465595300e+00 2.4066462748968938e+01 1.2491490630385364e+01 0 0 0
46 1 7.2283846275652639e+00 1.2837441614266993e+01 1.5816471670138036e+01 0 0 0
45 1 6.4748688838066952e+00 7.3866316739943558e+00 1.5312270161078498e+01 0 0 0
102 1 3.7434634951409249e+00 7.6508181858723052e+00 1.5275190652122490e+01 0 0 0
312 1 6.3702671499158559e+00 4.9529665995255749e+00 1.6364555989382243e+01 0 0 0
282 1 1.1066188532185864e+01 4.4977443360830627e+00 1.6141890517189289e+01 0 0 0
3 1 1.0894643887551956e+01 6.4801101745932099e+00 1.4284208089078870e+01 0 0 0
91 1 1.7793554398070103e+01 6.8261106719717626e+00 1.4665593217138333e+01 0 0 0
318 1 1.5198250713580219e+01 7.0494217515703435e+00 1.5383909849427210e+01 0 0 0
152 1 2.2158261639088732e+01 4.3667893983653414e+00 1.5393840409912256e+01 0 0 0
231 1 2.3148563079766182e+00 1.2276677251408183e+01 1.6590450028634002e+01 0 0 0
1031 1 2.2512690378581645e+01 2.4860286009072926e+01 1.1349284138282545e+01 0 0 0
65 1 6.4213768875494894e+00 1.0540527601678042e+01 1.4090429373253530e+01 0 0 0
2248 1 2.4674351763171298e+01 4.7957733464219636e+00 1.2515213320392283e+01 0 0 0
43 1 1.0240135214373908e+01 1.0465006602200297e+01 1.4951787811977127e+01 0 0 0
441 1 1.6487144687777771e+01 2.1981090420962053e+00 1.4755275100714716e+01 0 0 0
30 1 1.2034335151734597e+01 8.5574205034448099e+00 1.5588791081880865e+01 0 0 0
187 1 1.4039316475512944e+01 1.0577897447695090e+01 1.4594655176049594e+01 0 0 0
321 1 1.2143323883875334e-01 1.8850512729975872e+01 7.9688616885386701e+00 0 0 0
19 1 2.4684506481492974e+01 1.7816305745636503e+00 8.6104124197831986e+00 0 0 0
35 1 2.1641218745589999e+01 1.3251752351105662e+01 1.3048545669805630e+01 0 0 0
254 1 2.2434655949205954e+01 7.1982437382092197e+00 1.5578428757275576e+01 0 0 0
999 1 2.9720902213013880e+00 2.1875464803858649e-01 3.3966724337665140e+00 0 1 0
155 1 4.4992135863656095e+00 1.3437498126370286e+01 1.4859940345874657e+01 0 0 0
274 1 1.1944342339033215e+01 1.2489306611572779e+01 1.4512911119989964e+01 0 0 0
90 1 1.5220851038975262e+01 1.4561307445190227e+01 1.5787768984297220e+01 0 0 0
977 1 1.0666993317824899e+01 2.1527189478671971e+01 6.4501201986674017e-01 0 0 1
322 1 2.1151093635977386e+01 1.5064988761954206e+01 1.5043351828446760e+01 0 0 0
250 1 2.0142617006458234e+00 1.6913708345788876e+01 1.3989037940834066e+01 0 0 0
266 1 2.9682850094898239e-01 1.4969232459749524e+01 1.2780998052304044e+01 0 0 0
341 1 1.2582653600904052e+01 1.4265208913879933e+01 1.6431222873917324e+01 0 0 0
58 1 4.5509188066862452e+00 1.6200246089665619e+01 1.4671340170097709e+01 0 0 0
89 1 5.9527458426060011e+00 1.8109752350086282e+01 1.3080842877757096e+01 0 0 0
24 1 1.8078277701226373e+01 1.4990742648741135e+01 1.2130761004063697e+01 0 0 0
174 1 1.5535395380549476e+01 1.7194574986567343e+01 1.6160790263035189e+01 0 0 0
189 1 1.9568791871401384e+01 1.6832518145031568e+01 1.3700675662269749e+01 0 0 0
277 1 1.8243393084567220e+01 1.7509764033387217e+01 1.6085226951948378e+01 0 0 0
137 1 1.8910488678875887e+00 2.1249846021521837e+01 1.4221862178186226e+01 0 0 0
128 1 8.6153375827632601e+00 1.7701970588307017e+01 1.3349146810948204e+01 0 0 0
243 1 7.8914347301428052e+00 2.1316935184047839e+01 1.5693563471832926e+01 0 0 0
85 1 1.3872204889813112e+01 2.0507338124940340e+01 1.4094158986458091e+01 0 0 0
80 1 2.3067648573556671e+01 2.0695016741055284e+01 1.6092155022370495e+01 0 0 0
535 1 1.8418337356216476e+01 1.0853080150606843e+01 1.6651665390272232e+01 0 0 0
326 1 2.3804763166738592e+01 1.6815444503939421e+01 1.2827084505396369e+01 0 0 0
37 1 2.1843644382476739e+01 2.3388999998114937e+01 1.3602706730217134e+01 0 0 0
757 1 1.5016628396451637e+01 9.5959441181016025e+00 2.0739248121133391e-01 0 0 1
150 1 4.8543679886036646e+00 2.3472678404995669e+01 1.3556087833463762e+01 0 0 0
2021 1 1.6389240115795456e+00 1.1723976535025376e+01 9.5251235643035965e+00 1 0 0
2048 1 1.8178639464102524e+00 4.7739205033086307e+00 1.4856478357151239e+00 1 0 0
121 1 1.2211300051450587e+01 2.2274742879637273e+01 1.5401999840142034e+01 0 0 0
109 1 1.7176219442566953e+01 2.3406395571455732e+01 1.5038969319174143e+01 0 0 0
2142 1 2.4119157750000657e+01 7.7077405713240488e+00 3.4659261094150051e+00 0 0 0
2331 1 9.0422538951183551e-01 1.3702874342697857e+01 4.7412244864892228e-01 1 0 0
570 1 1.3346423089314783e+00 1.9076462410743996e+01 1.5597877565037152e+01 0 0 0
476 1 9.2545705197196675e+00 1.7857152028863510e+01 1.5970572068635359e+01 0 0 0
1021 1 7.0855568767117241e+00 2.4539887070890163e+01 4.8486249229486029e+00 0 0 0
564 1 1.0374071231075281e+01 2.0412649302233401e+01 1.6272342027698247e+01 0 0 0
2317 1 3.4382107514339394e-01 3.2407870925788491e+00 3.3134211429735774e+00 1 0 0
1155 1 9.8875405726817487e+00 6.1762461850185420e-02 1.2324518098060633e+01 0 1 0
3316 1 2.4940146022293849e+01 2.4934505694620626e+01 4.9264192799405873e+00 0 0 0
617 1 2.6889186960547842e+00 1.5726892887607831e+00 2.2153944258360166e+01 0 0 0
2632 1 1.4682660451978123e-03 5.6289123288449838e+00 2.4358667055604155e+01 1 0 0
81 1 2.2572383717691826e+00 2.4682425160555246e+00 1.8030530109821342e+01 0 0 0
631 1 4.4492906815746842e+00 1.8211226075660560e+00 1.9583720460289083e+01 0 0 0
382 1 8.5066865884707745e+00 2.6965688259897926e+00 1.9392872709135816e+01 0 0 0
557 1 1.0635748541765777e+01 3.6135964957746229e+00 2.0825135302586212e+01 0 0 0
419 1 1.6236108074675059e+01 2.4749579781575015e+00 1.7487054844074123e+01 0 0 0
565 1 1.3721249071507803e+01 1.4047806498627491e+00 1.7819822429931051e+01 0 0 0
574 1 1.3036659561477338e+01 3.4889485880162843e+00 1.9552207239286897e+01 0 0 0
2768 1 1.3497453209691903e+00 9.9904853904806803e+00 3.2646083530959842e+01 1 0 0
1573 1 3.7385546523044146e+00 6.7585314267171137e-01 2.4499127647725050e+01 0 1 0
2482 1 2.4394105843482706e+01 9.9282891645373113e+00 3.1399252018309895e+01 0 0 0
541 1 2.0613464232437742e+01 2.8483065420461040e+00 1.9092674207219080e+01 0 0 0
634 1 1.6914977586495016e+01 4.9073929396790383e+00 2.0950300226205371e+01 0 0 0
100 1 6.1948235406273291e+00 2.0656048988626519e-01 1.7894980139086449e+01 0 0 0
462 1 2.3689518485375526e+01 2.8598528110363510e+00 1.7004285542731491e+01 0 0 0
1419 1 9.1371458642341992e+00 5.3455301241339959e-01 2.9364153072572840e+01 0 1 0
468 1 2.3827696562047091e+01 3.7674977032682069e+00 1.9564999884770153e+01 0 0 0
649 1 1.8098171405242830e+01 1.0345095164379732e+00 1.9048365365392375e+01 0 0 0
450 1 2.7829500314979003e+00 5.6232793913663146e+00 1.8549724070132687e+01 0 0 0
562 1 3.0865525817523563e+00 8.3102308533156091e+00 1.7833580678179779e+01 0 0 0
586 1 1.6722515957600654e+00 5.6886619554642106e+00 2.0989061421118699e+01 0 0 0