LAMMPS data file via write_data, version 12 Dec 2018, timestep = 705

4096 atoms
1 atom types

0.0000000000000000e+00 5.0000000000000000e+01 xlo xhi
0.0000000000000000e+00 5.0000000000000000e+01 ylo yhi
0.0000000000000000e+00 5.0000000000000000e+01 zlo zhi

Masses

1 18.015

Atoms # atomic

322 1 4.2312833938019496e+00 1.4449535865373830e+00 1.3575983973439738e+00 0 0 0
98 1 6.3768139073479313e+00 3.0207747830105731e+00 1.8317540247867434e+00 0 0 0
218 1 1.0515208611401384e+01 9.8587136715167967e-01 2.3292596071408576e+00 0 0 0
2306 1 8.6523548374387471e-01 9.5781982559973944e+00 1.3417834654908711e+01 1 0 0
107 1 1.8999944921968215e+01 1.8053096239542197e+00 1.8577036989642417e+00 0 0 0
259 1 2.3662732845971387e+01 3.0688254215393944e+00 1.8654798324840411e+00 0 0 0
242 1 9.5868148483737787e+00 5.6764634293629692e+00 3.2635289582496014e+00 0 0 0
275 1 1.3301763134612605e+01 5.3587770801186787e+00 1.0530401678517587e+00 0 0 0
64 1 1.5713724495606691e+01 4.8553158192893155e+00 2.3758182863676600e+00 0 0 0
1240 1 2.3532958697590814e+01 2.3532723168339892e+01 2.5726761358086998e+00 0 0 0
938 1 9.5382354889183052e+00 1.5946947979103197e+01 2.2811426988102307e-01 0 0 1
243 1 2.3954096353460526e+00 1.0667377455559519e+01 1.0904442298829900e-01 0 0 0
90 1 7.4479373302472274e+00 9.1877236066180998e+00 2.8490929908839515e+00 0 0 0
151 1 7.0906436001987014e+00 6.5177463965962961e+00 2.7338480098039146e+00 0 0 0
181 1 2.2157193312401823e+01 7.9633749902594175e+00 1.5676876567457971e+00 0 0 0
309 1 2.0317278662744052e+01 6.0067037252638924e+00 1.2467532841755691e+00 0 0 0
43 1 3.9557929758565678e+00 1.1208951069979156e+01 2.3772966613132640e+00 0 0 0
55 1 6.3205752310983323e+00 9.3489022431001914e+00 5.2840124672606299e+00 0 0 0
66 1 5.3967587652458295e+00 1.3744680016973330e+01 2.2264595829703944e+00 0 0 0
1204 1 1.4220478716619411e+01 2.4304142932132049e+01 2.4480541598609662e+00 0 0 0
73 1 1.7619093942246305e+01 1.1337048533836796e+01 2.0572843744666338e+00 0 0 0
117 1 1.5191656340620337e+01 1.2904003176924862e+01 1.3744919258386099e+00 0 0 0
281 1 1.5573105570804286e+00 3.1711976036629017e+00 1.4439578086709769e+01 0 0 0
72 1 2.1283068174216240e+01 1.0299546258900591e+01 3.0642375339504430e-01 0 0 0
924 1 1.6648678241835036e+01 2.7923925273001369e+00 7.7829229702360014e-01 0 0 1
238 1 2.0555287000725126e+01 1.2174088839336743e+01 2.4635691020597972e+00 0 0 0
940 1 2.2522239828403055e+01 1.8642318055404026e+01 6.7456788519657873e-01 0 0 1
68 1 6.5012957852036992e+00 1.7318361786983790e+01 1.9892429411495021e+00 0 0 0
2181 1 2.9066849818439447e-02 1.1709964732270562e+01 1.4839365772284516e+01 1 0 0
217 1 2.3147600240496597e+00 1.6904274386255061e+01 3.5021920237920172e+00 0 0 0
11 1 1.7066403341069332e+01 1.4799973440183756e+01 7.3536900954698325e-01 0 0 0
81 1 2.3329484925469206e+01 1.3166204400134733e+01 2.5082458384379076e+00 0 0 0
108 1 1.9243954744255717e+01 1.4526225984339057e+01 2.2318402414632237e+00 0 0 0
138 1 2.0440135447638902e+01 1.7046188176229482e+01 4.6956652651407813e+00 0 0 0
2209 1 1.6333641944506053e-01 5.0180901896316961e+00 8.6473328487025931e+00 1 0 0
285 1 1.8466496312859057e+01 1.8118575352294307e+01 5.8203433686894457e-01 0 0 0
282 1 2.0809062344458727e+01 1.6396815594392436e+01 7.6057525739438370e-01 0 0 0
174 1 4.3880794658538305e+00 2.1005154586324750e+01 2.7487858008928980e+00 0 0 0
189 1 4.0031347854905937e+00 1.8320181671972257e+01 1.9288294744390104e+00 0 0 0
77 1 7.8090686424609483e+00 1.9681768975265182e+01 1.6736840040077012e+00 0 0 0
104 1 1.3791267445579757e+01 1.7387259064749884e+01 4.3871013811163218e-01 0 0 0
250 1 1.1628648597628942e+01 1.7419399279240299e+01 2.1907169012746435e+00 0 0 0
2267 1 1.9768444096818796e-01 1.2016136951029036e+01 7.2528982982522887e+00 1 0 0
173 1 1.6003499329025093e+01 1.7435700029628570e+01 1.9156022606058827e+00 0 0 0
226 1 1.6137835387746950e+01 2.1060464837800293e+01 6.2861127076056911e-01 0 0 0
135 1 2.4155959370749525e+01 1.8436498552109349e+01 3.2443796278302872e+00 0 0 0
207 1 2.2505563910053510e+01 1.5991634860161652e+01 3.1502114098936222e+00 0 0 0
321 1 2.1324809542653661e+01 2.0631526432573452e+01 2.3787388972732519e+00 0 0 0
141 1 1.9722410953420393e+00 2.2461562511192913e+01 2.6441449745338095e+00 0 0 0
31 1 5.0963579485021597e+00 2.4566130731377420e+01 8.1509575276499335e-01 0 0 0
1002 1 2.2931251262832824e+00 3.4944494913741457e+00 8.1790259376453556e-01 0 0 1
2038 1 7.9827992937265668e-01 9.3208362364956310e-01 1.0709299627150926e+01 1 0 0
69 1 1.1852350730193853e+01 2.1074379741869631e+01 3.2876872677246793e-01 0 0 0
233 1 8.2273646283222384e+00 2.3457553659064910e+01 3.8436787842136186e+00 0 0 0
45 1 1.3117047809191629e+01 2.1825253847604007e+01 2.6140686660577850e+00 0 0 0
88 1 9.4391593700721668e+00 2.4938593160909594e+01 1.7170850361864654e+00 0 0 0
178 1 1.7132497701703464e+01 2.3858789319694502e+01 8.4685576589069755e-01 0 0 0
21 1 2.0010592741343473e+01 2.2775916403167589e+01 1.2390388110728188e+00 0 0 0
48 1 1.9313128652105590e+01 2.3338794151684080e+01 3.9939851894938236e+00 0 0 0
114 1 1.9316063918784604e+01 2.4699440788297160e+01 1.4684853210897044e+01 0 0 0
210 1 2.3531526463066612e+01 2.1043203557912697e+01 4.1434832015089222e+00 0 0 0
175 1 2.2292003580572857e+00 1.4573033990486790e+00 4.8013668381840455e+00 0 0 0
318 1 4.2418040804985404e+00 1.9312933714464451e+00 6.4375359370029788e+00 0 0 0
251 1 8.3454156743090770e+00 2.3629378510518166e+00 5.7961454973730158e+00 0 0 0
220 1 1.0345937788887793e+01 3.1886804704176033e+00 4.2194267617817971e+00 0 0 0
307 1 1.5590779209125678e+01 1.0947746173907997e+00 4.7198699053656181e+00 0 0 0
16 1 1.9181101524389710e+01 1.6927739274550473e+00 6.6488217108049019e+00 0 0 0
283 1 2.3692886163223804e+01 3.3386904057248007e-01 2.4374684259723725e+00 0 0 0
291 1 6.0237574840139168e+00 3.1094075094384896e+00 4.6365136832270828e+00 0 0 0
294 1 1.7434662506230514e+00 3.9370418972656283e+00 3.5634384156724770e+00 0 0 0
302 1 7.8788715560792362e+00 4.2322197326210862e+00 7.7842001901914832e+00 0 0 0
219 1 1.0733345221955759e+01 7.1816910638465128e+00 5.5962473957740499e+00 0 0 0
115 1 1.4274440587217008e+01 5.3030379942857335e+00 6.5526735062159442e+00 0 0 0
312 1 1.1634007121993752e+01 4.6363550169034982e+00 6.3573656229670092e+00 0 0 0
248 1 1.5880610529846214e+01 3.8369849743855000e+00 4.8792296513662636e+00 0 0 0
83 1 1.8469679182347711e+01 4.0589692278892482e+00 5.5250857748268434e+00 0 0 0
71 1 2.3661132703226325e+01 5.6258112669151865e+00 5.1939087774920560e+00 0 0 0
122 1 2.2351204237443106e+01 3.4508556874461953e+00 4.2278839239263881e+00 0 0 0
216 1 1.9917941663829431e+01 4.0514204297972540e+00 3.2521430893066925e+00 0 0 0
37 1 2.6649364928776564e+00 6.4774772223972539e+00 4.7364844688556342e+00 0 0 0
211 1 5.4484390770949842e+00 5.7712399496358149e+00 4.7324594019160235e+00 0 0 0
264 1 1.2981039952874342e+01 8.1660778109123058e+00 6.9795939724769465e+00 0 0 0
297 1 8.6719064043369478e+00 8.0956453693279862e+00 7.2496534621892632e+00 0 0 0
201 1 1.7019604034066695e+01 9.4566992108285746e+00 4.0751800981572091e+00 0 0 0
241 1 1.8454268426361466e+01 8.6346286376753589e+00 6.4205711657494664e+00 0 0 0
155 1 7.4691456612423401e-01 1.4517096796102340e+01 6.2619948095343423e+00 0 0 0
159 1 4.1113617108752853e+00 1.7176996818180147e+01 5.8776734080001338e+00 0 0 0
244 1 2.2182673452888775e+00 1.3454476695084484e+01 4.1933689454033951e+00 0 0 0
267 1 3.6127154332692362e+00 9.3873860157140108e+00 4.5821352981855812e+00 0 0 0
227 1 4.7634901835871197e+00 1.4615069279205018e+01 4.7990715414527463e+00 0 0 0
156 1 7.2316450797531528e+00 1.2003006475106631e+01 6.0619944235327781e+00 0 0 0
89 1 9.2485524122537299e+00 1.2546122927173638e+01 4.0258372499536641e+00 0 0 0
247 1 1.4412910802581488e+01 1.3526792809450434e+01 3.9045549242050810e+00 0 0 0
119 1 2.0824206082488114e+01 1.1934849388012845e+01 5.1546486828842983e+00 0 0 0
214 1 1.8457408516242246e+01 1.2950764805313284e+01 6.2374927152625945e+00 0 0 0
13 1 1.2098129400333586e-01 1.8212795491488542e+01 4.3972980774576440e+00 0 0 0
39 1 7.5343065403281839e+00 1.6570905437034323e+01 4.5270919080034506e+00 0 0 0
284 1 1.0385578184392498e+01 1.4558398659153353e+01 7.9188751648637394e+00 0 0 0
67 1 1.1696769662919328e+01 1.3503316717993446e+01 5.0169226912752727e+00 0 0 0
140 1 1.4615137753823424e+01 1.7019130499236127e+01 6.3014751280385672e+00 0 0 0
142 1 1.5778201568611967e+01 1.5845291780132422e+01 4.1805975587199429e+00 0 0 0
132 1 1.8369653291586435e+01 1.5277959290533197e+01 4.7266023360047908e+00 0 0 0
51 1 2.4196195653007354e+01 1.5155932683391633e+01 5.2153818919872998e+00 0 0 0
299 1 2.4060357551151654e+01 1.7774309439590990e+01 6.1325896139645595e+00 0 0 0
15 1 3.4214522862342234e+00 2.1811743563648090e+01 6.6688784279609710e+00 0 0 0
17 1 4.7675168837454800e+00 1.9858827074589481e+01 5.2749313554650774e+00 0 0 0
137 1 1.0302072758851025e+01 1.6007993178650985e+01 4.3247148078558020e+00 0 0 0
149 1 1.1436245547948872e+01 2.1035468742856786e+01 4.6083755378399101e+00 0 0 0
170 1 7.4456888655381981e+00 1.9223263701231446e+01 5.4665441721233901e+00 0 0 0
203 1 1.0961282790975249e+01 1.7492934949325644e+01 6.6503508616660270e+00 0 0 0
303 1 8.8316542964138787e+00 2.0856025742120291e+01 3.8577046823093535e+00 0 0 0
202 1 1.2863718182238815e+01 1.8638196693706181e+01 4.5843432129901878e+00 0 0 0
197 1 1.5327830979697238e+01 1.9971992507222222e+01 3.1301473021811201e+00 0 0 0
161 1 1.7594587116038941e+01 2.0739812384399759e+01 4.5154250326371805e+00 0 0 0
234 1 1.9350318039702632e+01 1.9026405945150810e+01 3.1497451028546717e+00 0 0 0
263 1 2.2253251457114438e+01 2.0836390088806080e+01 6.4813261140485343e+00 0 0 0
298 1 1.8349172326005430e+01 1.9278639406642771e+01 6.7716187188488206e+00 0 0 0
49 1 1.9850305351164828e+00 2.3694226232879622e+01 5.1145348202427590e+00 0 0 0
2210 1 7.3124499091365935e-01 2.2448192263651087e+01 1.4707384735190185e+01 1 0 0
134 1 5.6252074894809061e+00 2.3532071662475040e+01 3.2171586594735984e+00 0 0 0
306 1 9.6794027185358154e+00 2.4861203109204375e+01 6.0648824644752652e+00 0 0 0
300 1 1.6370149999758617e+01 2.3035963694035956e+01 6.2493162283852426e+00 0 0 0
326 1 1.6743107250696159e+01 2.4604040470391602e+01 3.7755144890381769e+00 0 0 0
8 1 2.0155325408811784e+01 2.2682356868548357e+01 6.6656695542849151e+00 0 0 0
869 1 1.2846823401245970e+01 6.0015332465272209e-01 8.3842895901660930e-01 0 0 1
1038 1 1.1644851293265761e+01 8.3819846524225348e+00 3.0994973568973299e+00 0 0 1
290 1 3.5092894484469936e+00 1.8524268173096259e+00 1.0803157603231266e+01 0 0 0
1017 1 9.9661073618446423e+00 1.9046703499545846e+01 2.9714909448204907e-01 0 0 1
330 1 6.0015693938261014e+00 6.9754702458990447e-01 1.0281554328505340e+01 0 0 0
194 1 1.6380085342403120e+01 3.9272973804994360e-01 1.0435903160145809e+01 0 0 0
62 1 2.0619742788925105e+01 1.0450706813518765e-01 9.4943630089639957e+00 0 0 0
192 1 2.1903606964459563e+01 1.3231682150293218e+00 5.9648770617573055e+00 0 0 0
110 1 2.2775239747196739e+01 1.5329002358130290e+00 8.5396724097849024e+00 0 0 0
129 1 1.9851793825278785e+00 6.7405358645062403e+00 7.4065827494124123e+00 0 0 0
36 1 3.0676294114815992e+00 3.2326891191235143e+00 8.4915184323865862e+00 0 0 0
245 1 6.4344742410485765e+00 3.8910951091340116e+00 1.0024404697615594e+01 0 0 0
280 1 4.1972083169499959e+00 5.7005316034836442e+00 8.8756387484168560e+00 0 0 0
99 1 1.5545820670960666e+01 6.2742386025907804e+00 8.7828064759203617e+00 0 0 0
74 1 1.7787323953940231e+01 4.9473930334984706e+00 9.5666461422733828e+00 0 0 0
23 1 1.8414417280333712e+01 1.9999902983425564e+00 9.5045840783837061e+00 0 0 0
213 1 2.3882873716077867e+01 5.8408450153311531e+00 7.8608228791498718e+00 0 0 0
277 1 2.1320503439995370e+01 5.9125585445653366e+00 8.7949979896392954e+00 0 0 0
252 1 2.6058921922384464e+00 9.1050261053334296e+00 8.7770687806902714e+00 0 0 0
193 1 6.3906321636574974e+00 6.4610390355000078e+00 7.1273386985746443e+00 0 0 0
317 1 4.6052093555328391e+00 9.5699472215784382e+00 1.0656694570100102e+01 0 0 0
4 1 8.4971537130792107e+00 1.0693758984928088e+01 8.0444421426652184e+00 0 0 0
91 1 1.0225317823431432e+01 4.9653306455963797e+00 8.7027367844887618e+00 0 0 0
237 1 1.2336196790711584e+01 8.0996245089732994e+00 9.6562288486691674e+00 0 0 0
52 1 1.9012476543331871e+01 6.0183804394745932e+00 7.3088449666527175e+00 0 0 0
165 1 2.1192834149070919e+01 9.3631711618990465e+00 5.9000904457872867e+00 0 0 0
230 1 2.2217599446178198e+01 9.6203849408410953e+00 8.4183210641568085e+00 0 0 0
266 1 1.7115498636383546e+01 1.0379019515020063e+01 1.0194638687570579e+01 0 0 0
246 1 2.4595152398273218e+01 8.3112521697809587e+00 8.5116658693984100e+00 0 0 0
265 1 2.3054597706121378e+01 8.1700681909055497e+00 4.1444677511952097e+00 0 0 0
176 1 4.6381701188494970e+00 1.2878065133169279e+01 7.0264072063083738e+00 0 0 0
215 1 4.4199851127643592e+00 1.4421612341354006e+01 9.4630904158389146e+00 0 0 0
239 1 7.0306832983111400e+00 1.0761753271772283e+01 1.0291479565760433e+01 0 0 0
288 1 2.7256691555333630e+00 1.0930037998874370e+01 6.7624225762237646e+00 0 0 0
5 1 1.0908695456508134e+01 1.1867033812626669e+01 8.4131098725873716e+00 0 0 0
100 1 1.2317121783897621e+01 1.0961853685050752e+01 6.3631088141733487e+00 0 0 0
22 1 1.6141477867347067e+01 8.9163156011902664e+00 8.0856738823289280e+00 0 0 0
198 1 1.6090694591216760e+01 1.1880761495993948e+01 5.3336335863071911e+00 0 0 0
289 1 1.4685949837018045e+01 1.1341919557816212e+01 7.5279464336806781e+00 0 0 0
295 1 1.4120189430290633e+01 1.3478302786544031e+01 9.4204497640393754e+00 0 0 0
143 1 1.6869161219157011e+01 1.3299141007959479e+01 9.9232305692373934e+00 0 0 0
255 1 1.9212864625742981e+01 1.1154094645498070e+01 8.3761601413250037e+00 0 0 0
256 1 2.2691320425767863e+01 1.3416831013188322e+01 6.5689596249610780e+00 0 0 0
296 1 2.1204875970783617e+00 1.6507321268874126e+01 7.5948465005450023e+00 0 0 0
14 1 9.0653290262585919e+00 1.4675121088890634e+01 1.0400045763900241e+01 0 0 0
18 1 5.8534003452671346e+00 1.6334846247337467e+01 7.9855657924675105e+00 0 0 0
139 1 7.8105021014150147e+00 1.4788523428485066e+01 6.7579587686660059e+00 0 0 0
53 1 1.3044818882014441e+01 1.5906920890756860e+01 8.3499305643335298e+00 0 0 0
158 1 1.6978567978002562e+01 1.7176646864742494e+01 7.6641403925631648e+00 0 0 0
166 1 1.8526118964437931e+01 1.4939693516842976e+01 8.3823573922333825e+00 0 0 0
75 1 2.0990662380927521e+01 1.8479719688158834e+01 7.0819670154066685e+00 0 0 0
188 1 1.9900403738924485e+01 1.6312465844261812e+01 1.0671997250458132e+01 0 0 0
254 1 1.7558022495250203e+01 1.6919428772899685e+01 1.2088756746464320e+01 0 0 0
102 1 2.1619781774345981e+01 1.5619084537892801e+01 7.9231046065764907e+00 0 0 0
80 1 1.6210326352580215e+00 2.0729661419438791e+01 8.3052466509996510e+00 0 0 0
191 1 5.3973742520977979e+00 2.0479852223772173e+01 1.0102156613241869e+01 0 0 0
271 1 7.0028826806504405e+00 1.8381260189369701e+01 9.3104089279678117e+00 0 0 0
70 1 8.9652955915424197e+00 1.9226784889870849e+01 7.6945659515117812e+00 0 0 0
229 1 1.6265288297199287e+01 1.8155169323043506e+01 1.0062598572639455e+01 0 0 0
6 1 1.8041272132073448e+01 2.1492066661099379e+01 8.2457135210653121e+00 0 0 0
182 1 2.0833877554386291e+01 1.8777620761583417e+01 9.9358979070376812e+00 0 0 0
311 1 2.4355795842829171e+01 2.0595449589595187e+01 8.3016629286595123e+00 0 0 0
112 1 8.1722154052644331e+00 1.4155209450387444e+01 2.0448287470212723e+00 0 0 0
124 1 5.3228615987982533e+00 2.2753117176912575e+01 8.3794020255914941e+00 0 0 0
35 1 1.1268134147640382e+01 2.2698950500054110e+01 6.7327126707434859e+00 0 0 0
150 1 1.3824160795898655e+01 2.3478018025384078e+01 7.2651440665301363e+00 0 0 0
54 1 2.0331403889034615e+01 2.3902672354197282e+01 1.0604328661444375e+01 0 0 0
136 1 2.1561574653689178e+01 2.4290884255340245e+01 8.3382974486218675e+00 0 0 0
552 1 5.2151750956741560e+00 1.9843905387407194e+01 1.5483034408238566e+01 0 0 0
82 1 2.4000750107374706e+01 2.3257915260794366e+01 8.5426882532609056e+00 0 0 0
58 1 8.6234389342334179e+00 1.8369843547327809e+00 1.1239437771282191e+01 0 0 0
196 1 1.2255522365893267e+01 2.1001691501052115e+00 1.4366565911685212e+01 0 0 0
28 1 1.9973103800462901e+01 3.0731012246690321e+00 1.1717388689740119e+01 0 0 0
93 1 2.1329267699075103e+01 1.4357322061103024e+00 1.3312420489679466e+01 0 0 0
76 1 2.1991337912535634e+01 3.6342829517536241e+00 1.0110052391943070e+01 0 0 0
78 1 3.6566092493584947e+00 3.6908283933061949e+00 1.2752273979341213e+01 0 0 0
167 1 6.9536796408178281e-01 6.4406307908506903e+00 1.0998924067073073e+01 0 0 0
268 1 3.3499333625108103e+00 6.0295201629375281e+00 1.1479311196797683e+01 0 0 0
269 1 7.3063727733060766e+00 6.0191680115772863e+00 1.1779107897530325e+01 0 0 0
40 1 1.0540606402514912e+01 3.9322021878181248e+00 1.1123944226219308e+01 0 0 0
153 1 1.3073030042756823e+01 4.0153412960649835e+00 1.2220959196927666e+01 0 0 0
329 1 1.4141340699409803e+01 6.4562981109065980e+00 1.1111042370177323e+01 0 0 0
314 1 1.7414433724327338e+01 6.4438939324880851e+00 1.2025682451649251e+01 0 0 0
44 1 2.4237943404062573e+01 4.4579090127861738e+00 1.1961227667057383e+01 0 0 0
152 1 1.9152490772682207e+00 7.7916304239675540e+00 1.5261354559671387e+01 0 0 0
301 1 5.2172979075244790e+00 7.7190678587391686e+00 1.2589984042423048e+01 0 0 0
169 1 9.6825891810705009e+00 7.4458496207765084e+00 9.7846473097033311e+00 0 0 0
257 1 8.6074728163591878e+00 9.2392083200913238e+00 1.1917166160317571e+01 0 0 0
206 1 1.2487692173445042e+01 1.0713881047934466e+01 1.0475975178375556e+01 0 0 0
278 1 1.4583486080893657e+01 8.4654080760898118e+00 1.3063702587396657e+01 0 0 0
212 1 2.1165263663766403e+01 8.0635799769468246e+00 1.0539944973405387e+01 0 0 0
785 1 1.8158768901385024e+01 7.2734269675783034e+00 7.4484752483310185e-02 0 0 1
57 1 6.3710953249202618e+00 1.3563835420234794e+01 1.3490274725223300e+01 0 0 0
199 1 6.6608702804326443e+00 1.3370810159776664e+01 1.0783531376694411e+01 0 0 0
236 1 6.3456631798732577e+00 1.6354557693488161e+01 1.3051891391339446e+01 0 0 0
235 1 1.0515528057354587e+01 1.3374421290621543e+01 1.2333234195783012e+01 0 0 0
171 1 1.0869977500645131e+01 1.0600564353123080e+01 1.2663351000126488e+01 0 0 0
1 1 1.4880161090605915e+01 1.0783542424672984e+01 1.1844011978658928e+01 0 0 0
96 1 1.7306252646070813e+01 1.4117279180359930e+01 1.2436645845013221e+01 0 0 0
2 1 2.1051115868960018e+01 1.2831824334681258e+01 9.7790849072300396e+00 0 0 0
184 1 2.3040295250810772e+01 9.8141083668612250e+00 1.2547355761528911e+01 0 0 0
328 1 2.0706542404337451e+01 1.1323688260583356e+01 1.2132310161832192e+01 0 0 0
116 1 2.4375296231644268e+00 1.6937189050512188e+01 1.0392991881097602e+01 0 0 0
231 1 1.3110757234342580e+01 1.4134450601094340e+01 1.2058514953436694e+01 0 0 0
26 1 2.1561518543581773e+01 1.4682216659441803e+01 1.2102621113346217e+01 0 0 0
148 1 2.4055672339589609e+01 1.6278616004315399e+01 9.2775893306093540e+00 0 0 0
41 1 2.8119371060422726e+00 1.9717643419043480e+01 1.0530657408651930e+01 0 0 0
177 1 6.5193406701657999e+00 2.2102929131367784e+01 1.1975776732143482e+01 0 0 0
24 1 9.6850948410528854e+00 1.9162123544944379e+01 1.2615634665658845e+01 0 0 0
113 1 9.8196459514902816e+00 2.1621650470221724e+01 8.7750953341944840e+00 0 0 0
128 1 8.2619190856316767e+00 1.7179783826222625e+01 1.1308844333230716e+01 0 0 0
111 1 1.3549951878621725e+01 2.0036673345590327e+01 1.1547525321811669e+01 0 0 0
293 1 1.1080653753718728e+01 2.1010462550879655e+01 1.1129147537863959e+01 0 0 0
195 1 1.3696869164236702e+01 1.7400078783441096e+01 1.0650308413573002e+01 0 0 0
133 1 2.3519418918681374e+01 1.8748689246660472e+01 1.0241494932052474e+01 0 0 0
305 1 1.9585636405157960e+01 2.1296382113316714e+01 1.0802620825653612e+01 0 0 0
313 1 2.3856934015161137e+01 1.8556749863906720e+01 1.3050714473940749e+01 0 0 0
19 1 1.5772289715373359e+01 2.1211539699479427e+01 1.0216926166055257e+01 0 0 0
272 1 2.1554101914768932e+01 2.0847632700058135e+01 1.5704920934034705e+01 0 0 0
146 1 1.7388838028768212e+01 2.4797819978019707e+01 1.2764895873051520e+01 0 0 0
154 1 1.7348098161301277e+01 2.2040566270255511e+01 1.2222391905185690e+01 0 0 0
249 1 1.2178133273043517e+01 2.3459149494747400e+01 1.1847818112080031e+01 0 0 0
287 1 1.4190155077371516e+01 2.3514814758129241e+01 9.9114255421179571e+00 0 0 0
208 1 2.1664439177992065e+01 2.0399255451561928e+01 1.3019715157455321e+01 0 0 0
276 1 2.4757651237546170e+01 2.3272155433596172e+01 1.1107246629616260e+01 0 0 0
232 1 4.6701683005106274e+00 7.8611701630925301e+00 1.5641772271198976e+01 0 0 0
327 1 2.2910680469399264e+01 2.3030024235062942e+01 1.3044108911837570e+01 0 0 0
126 1 7.9362490688357505e+00 2.3045975590736565e+00 1.3811548344568141e+01 0 0 0
569 1 1.9942829707361671e+01 1.3669032049994474e+00 1.5659589376670805e+01 0 0 0
223 1 6.8676568864241290e+00 7.9011170572336964e-01 1.5714324342739742e+01 0 0 0
97 1 2.4946768956119740e+01 1.1764376483090940e+01 1.4121895118155800e+01 0 0 0
802 1 8.5351388945073854e+00 1.8805727503943614e+00 5.7258962485118214e-01 0 0 1
547 1 1.6846975273859400e+01 1.5558196942731012e+01 1.6386802851639722e+01 0 0 0
562 1 2.3715526810196589e+01 3.5345930257127605e+00 1.6202122294717821e+01 0 0 0
320 1 1.7330931774761282e+01 2.0556759298032993e+01 1.4455622833958367e+01 0 0 0
47 1 2.3831914532209101e+01 2.3671150487710784e+00 1.3740447455870674e+01 0 0 0
2285 1 1.7183133236409112e-01 7.8073629781922342e+00 4.2641475169765686e+00 1 0 0
29 1 4.0117660054236737e-01 5.5248765257581613e+00 1.5145986034921677e+01 0 0 0
2128 1 2.4274164349232429e+01 1.4948718812829243e+01 1.1669387868273219e+01 0 0 0
160 1 6.1611003118923531e+00 4.2801851182914428e+00 1.3693909416990017e+01 0 0 0
225 1 6.3010378259953672e+00 5.5311847597563419e+00 1.6085535413046212e+01 0 0 0
274 1 9.8308789552328157e+00 5.9488452310641495e+00 1.3112161958569599e+01 0 0 0
50 1 1.0032769008029712e+01 3.6041416865321398e+00 1.4720359038300550e+01 0 0 0
200 1 1.3419597210615480e+01 5.3349282796753625e+00 1.4809966580286121e+01 0 0 0
34 1 1.7961314855334862e+01 3.7013260117919558e+00 1.5787718505504060e+01 0 0 0
145 1 1.9589071605481816e+01 5.2837901781519401e+00 1.3355770289610271e+01 0 0 0
270 1 1.6189903471825946e+01 5.5576168876107275e+00 1.4592173348850816e+01 0 0 0
2186 1 4.0818524967785451e-02 2.0657485791345554e+01 2.9695896033337301e+00 1 0 0
32 1 2.4434296316608741e+01 6.1642638431498042e+00 1.5892589334270486e+01 0 0 0
61 1 2.2163219896633137e+01 6.3265121904408392e+00 1.2478054343457643e+01 0 0 0
968 1 9.8818323260328231e+00 1.0327178456534782e+01 2.5627270193376561e+00 0 0 1
2177 1 4.5793933552162419e-01 1.8568360466083323e+01 7.1373306771524092e+00 1 0 0
209 1 7.5320712022387530e+00 9.3173546077821996e+00 1.4470779635394484e+01 0 0 0
222 1 8.7293298438027840e+00 7.0260420877616232e+00 1.5758504217206870e+01 0 0 0
65 1 1.2025768927876181e+01 7.6541640907680097e+00 1.3922170959483903e+01 0 0 0
292 1 1.1299472031785267e+01 8.3719137628447271e+00 1.6444929529637413e+01 0 0 0
7 1 2.0139112041512323e+01 7.3861103935532251e+00 1.5306117503097079e+01 0 0 0
319 1 1.6957569269273947e+01 1.2761359394005424e+01 1.5985187432956289e+01 0 0 0
118 1 1.8647088789895335e+01 9.5618692247222548e+00 1.4657493144320851e+01 0 0 0
164 1 1.6354591300850419e+01 8.2445426327510631e+00 1.5242159102604798e+01 0 0 0
262 1 1.8781655915568642e+01 8.9662449825763897e+00 1.1794166890107626e+01 0 0 0
310 1 2.2709126424379800e+01 8.0310089026579927e+00 1.4824917275491591e+01 0 0 0
12 1 1.3551657568895379e+01 2.3546194214767596e+01 1.4362829921478623e+01 0 0 0
27 1 3.2402665184826822e+00 1.0943327917283671e+01 1.2541350577117992e+01 0 0 0
121 1 2.8740743892067866e+00 1.3655813946005047e+01 1.2090185947721897e+01 0 0 0
228 1 3.7866955201968450e-01 1.3842861004889565e+01 1.3275553749760496e+01 0 0 0
486 1 6.3178328274821531e+00 2.3563820662120960e+01 1.6470485213959002e+01 0 0 0
331 1 5.2007445320422097e+00 1.0966658669023515e+01 1.4438818325188901e+01 0 0 0
131 1 1.1341753704961429e+01 1.0924621778189882e+01 1.5534387379902650e+01 0 0 0
179 1 8.8980439135718949e+00 1.3961140482897122e+01 1.4438918754420223e+01 0 0 0
185 1 8.7494737100590942e+00 1.1526570327072758e+01 1.5662703678006872e+01 0 0 0
30 1 1.5100528262877996e+01 1.2924649637138737e+01 1.3603434682722384e+01 0 0 0
87 1 2.0860213112492236e+01 1.4737631418105240e+01 1.4902840953535982e+01 0 0 0
84 1 1.5332888563691618e+01 7.2873712950843017e-01 2.0411506639454906e+00 0 0 0
240 1 2.3166046758818183e+01 1.0726841825270883e+01 1.6017521785490615e+01 0 0 0
279 1 1.9110463130487627e+01 1.2675680885729120e+01 1.4080741623328269e+01 0 0 0
125 1 3.8244556987354645e+00 1.4209832156402781e+01 1.5058071264600580e+01 0 0 0
46 1 1.9198359367896224e+01 2.2256736817533771e+01 1.5995900936480895e+01 0 0 0
205 1 1.1522948296610837e+01 2.4576272978718272e+01 1.5866658066924442e+01 0 0 0
127 1 1.9252887577029366e+01 1.6812358072895588e+01 1.5443390666695274e+01 0 0 0
2087 1 5.1271002789354969e-01 9.3973954287125103e+00 1.0551390798258696e+01 1 0 0
106 1 2.3233981368589212e+01 1.6337267643446239e+01 1.4841399429505948e+01 0 0 0
92 1 2.3219971187228192e+00 2.0693451828468728e+01 1.3156110922443776e+01 0 0 0
3 1 2.3989204711135447e+01 2.4243836854935655e+01 1.5332973230903924e+01 0 0 0
25 1 9.2260618440121629e+00 2.4832401812635620e+01 1.4448958475557074e+01 0 0 0
224 1 3.6648165836572471e+00 1.6525656486277867e+01 1.2929848652874652e+01 0 0 0
636 1 1.3956761172892723e+01 1.4858829826054716e+01 1.5720748484980644e+01 0 0 0
315 1 6.8346964411434890e+00 1.7453212866960055e+01 1.5385964452915269e+01 0 0 0
79 1 7.7400968879334107e+00 2.0506701947226937e+01 1.3924518651420215e+01 0 0 0
2025 1 2.4271668198604407e-01 1.2014930381633869e+01 1.3980216531429621e+00 1 0 0
63 1 1.4346095462322433e+01 2.0721453000663370e+01 1.4106763032477909e+01 0 0 0
162 1 1.3342011188178381e+01 1.6614787617852588e+01 1.3352203279393139e+01 0 0 0
42 1 1.5823925704782171e+01 1.7591684055781705e+01 1.4373244646356339e+01 0 0 0
261 1 1.9217956851759922e+01 1.8779914340119763e+01 1.3436885951713736e+01 0 0 0
857 1 6.0747810979056629e+00 5.5044823132321437e+00 2.6705679574673452e-01 0 0 1
20 1 1.2973894919033771e+01 1.9351253810040863e+01 1.6386275749428403e+01 0 0 0
2183 1 2.3716537379710427e+01 1.1941381639279852e+01 8.7489429366752365e+00 0 0 0
343 1 8.5968663470170483e+00 2.2282970895365626e+01 1.5799097562460080e+01 0 0 0
2389 1 4.4984951388144108e+00 2.2322163238701830e+01 1.4077461544846942e+01 1 0 0
59 1 1.1265567478824957e+01 1.7984248552360867e+01 1.4460457026240132e+01 0 0 0
180 1 2.7908516917257953e+00 1.8407569027213583e+01 1.4685529452420585e+01 0 0 0
2103 1 2.4092481640846778e+01 1.1170423392478023e+01 4.4257269049786760e+00 0 0 0
2214 1 1.0193894630521250e+00 1.4778493138277650e+01 1.8533756521742495e+00 1 0 0
762 1 1.3694905254919577e+01 8.1034238564455467e+00 1.1745379644057334e+00 0 0 1
549 1 9.4646071283775850e+00 1.6547203256763716e+01 1.5924139519654821e+01 0 0 0
808 1 1.0556158823914933e+01 6.0365662710420347e+00 7.7682600803926360e-01 0 0 1
2194 1 6.8904099656692974e-01 1.0738072301819869e+01 3.8420645398326125e+00 1 0 0
1289 1 8.1545194038340689e+00 2.3605111798420591e+01 9.9316249220062485e+00 0 0 0
459 1 2.8443767735980439e+00 2.4099596941259431e+01 1.5820413295502513e+01 0 0 0
1103 1 7.1404281281617787e-01 2.4079002426358297e+01 6.4282968487872627e-01 0 0 0
333 1 2.4529027466036307e+01 2.1492475292401622e+01 1.6051046228748458e+01 0 0 0
958 1 6.1757165902792810e+00 1.0428366883163426e+01 7.2699109002591733e-01 0 0 1
183 1 1.6284708902075856e+01 7.5579648853630594e+00 2.0561504088602409e+00 0 0 0
120 1 2.3640424004375735e+01 2.2114514483617672e+01 9.8203706631750279e-02 0 0 0
745 1 6.1338054005275566e+00 2.1184059341754928e+01 9.2074223156292434e-02 0 0 1
157 1 2.1084510789872640e-02 1.8075314726241636e+01 1.4835108940737136e+01 0 0 0
581 1 1.1181838749927138e+01 3.9575861467295326e-01 1.8238832076668732e+01 0 0 0
592 1 9.0904771178414947e+00 2.4973186646211691e+00 1.8872038181024536e+01 0 0 0
356 1 1.5699628524796953e+01 2.5626094230600378e+00 1.9572297142014548e+01 0 0 0
493 1 1.9548126504171680e+01 1.0368467104241490e+00 2.1382916336277496e+01 0 0 0
1611 1 1.7036303401447256e+01 4.6663268431730259e-01 2.0349551539731483e+01 0 1 0
2578 1 4.4550772795562377e-01 2.4609121805078615e+01 1.7734060740710163e+01 1 0 0
874 1 1.0411501698987873e+01 1.2812055840613517e+00 3.3298350210870460e+01 0 0 0
2457 1 1.6135673630024467e+00 2.1267187936401015e+01 1.9232651051713070e+01 1 0 0
474 1 9.7150087532914355e+00 2.4876785014260648e+01 3.1630848804126654e+01 0 0 0
711 1 1.8935559768367153e+01 1.7128891265936829e+01 3.1666757048895253e+01 0 0 0
1041 1 1.3391433307980751e+01 2.1189527798562136e+01 3.3079550011541933e+01 0 0 0
429 1 1.2374586052099714e+01 5.0730898189686453e+00 1.7642732828282448e+01 0 0 0
434 1 1.9647321098815286e+01 5.6509431423060681e+00 1.7279523026251361e+01 0 0 0
363 1 2.1771652813068183e+01 6.5225904738463045e+00 1.9006789439140341e+01 0 0 0
544 1 1.3289850076347886e+01 7.9733056610117190e+00 1.8469745256974782e+01 0 0 0
558 1 1.6025123733474427e+01 8.5797942538849181e+00 1.7917067777037939e+01 0 0 0
568 1 1.7982562931078409e+01 6.9497325755045232e+00 1.9083267780677492e+01 0 0 0
595 1 1.7091675626092034e+01 1.1124801603185048e+01 1.8268301903162964e+01 0 0 0
639 1 2.4504326157831077e+01 6.9906595051456923e+00 1.8509373238933946e+01 0 0 0
394 1 1.0459046568153578e+00 2.2399110111062374e+01 2.1667053057692229e+01 0 0 0
526 1 1.5531483042122343e+00 1.2006302272579619e+01 1.7074373249859104e+01 0 0 0
612 1 5.6819994615802223e+00 1.3343652228331784e+01 1.8195375793083830e+01 0 0 0
688 1 4.5694181607449469e+00 8.9685343035587817e+00 1.8486588288509711e+01 0 0 0
491 1 9.2974281227209321e+00 1.0721495560799426e+01 2.0064391644228678e+01 0 0 0
621 1 8.3021575506990288e+00 1.2429567530929926e+01 1.8133647896745352e+01 0 0 0
462 1 1.3507977358752957e+01 1.3496493412454154e+01 1.9620448980830528e+01 0 0 0
433 1 1.3400286231530755e+01 2.3048547860851674e+01 3.0818986213530877e+01 0 0 0