LAMMPS data file via write_data, version 12 Dec 2018, timestep = 50000

1531 atoms
1 atom types

1.4410686228323755e-02 4.9645805021822433e+01 xlo xhi
9.0715868190667237e-03 3.1252240409694235e+01 ylo yhi
9.0715868190667237e-03 3.1252240409694235e+01 zlo zhi

Masses

1 18.015

Atoms # atomic

8 1 3.2842031933167504e+00 1.3305686944102297e+00 3.1744426894808386e+00 0 0 0
7 1 1.5537992801177096e+00 1.3278993722771998e-01 1.3795285278220648e+00 0 0 0
16 1 4.8453873003774826e+00 2.6880995223234248e+00 1.5190432253404176e+00 0 0 0
12 1 9.4272760067101942e+00 1.1588419722178718e+00 3.3056549801582400e+00 0 0 0
15 1 1.3158784850491769e+00 5.7515217301847290e+00 1.2210167252504629e+00 0 0 0
17 1 6.2489092434982076e+00 4.3872523360013815e+00 3.2808454965885741e+00 0 0 0
18 1 4.2511423619028026e+00 5.9649108312298837e+00 4.5013998007786009e+00 0 0 0
20 1 7.4432483629991486e+00 5.8627682173493030e+00 1.3902655716731238e+00 0 0 0
22 1 2.5360713953720229e+00 7.4928192787310621e+00 3.2620738053471774e+00 0 0 0
21 1 8.8315995147948056e-01 9.3164209387871857e+00 4.4090630730286140e+00 0 0 0
24 1 4.1082704908937551e+00 9.1350906316742009e+00 1.7840450665251821e+00 0 0 0
23 1 9.2513614685365759e+00 7.4361429314165024e+00 2.8509022970304603e+00 0 0 0
79 1 1.7390362452398151e+00 1.2422429026975371e+01 9.9950376156413079e-01 0 0 0
66 1 4.7080985481797946e+00 2.7749502307633499e+01 1.3729648343392698e+01 0 -1 0
6 1 5.6760486198697162e+00 1.0554942219021662e+01 3.3483347351506447e+00 0 0 0
84 1 7.4091640765058546e+00 1.2116881905669366e+01 1.7900934629259941e+00 0 0 0
85 1 9.1059011338563653e+00 1.3607354253458602e+01 3.5030281125622182e+00 0 0 0
80 1 3.1446231164643801e+00 1.3841586041155901e+01 3.0243530717167295e+00 0 0 0
90 1 4.7930567550728824e+00 1.5540876048007545e+01 1.5839930632042605e+00 0 0 0
91 1 6.3634159304613869e+00 1.6907823417058310e+01 3.4154461142458286e+00 0 0 0
94 1 1.4127159816969797e+00 1.8400130143168212e+01 1.6423387228913102e+00 0 0 0
96 1 2.7404029460679116e+00 1.9760126539905400e+01 3.3334807807660640e+00 0 0 0
99 1 7.8254519352928193e+00 1.8495704900290463e+01 1.5597290178759526e+00 0 0 0
100 1 9.5223110734897585e+00 1.9838787663359099e+01 3.4395325343663687e+00 0 0 0
151 1 7.5848119271228240e+00 2.4759744066904858e+01 1.4049167383763344e+01 0 0 0
98 1 4.7065282911917272e+00 2.1484345679748223e+01 1.8717539650033985e+00 0 0 0
104 1 6.5240402692249084e+00 2.3022627259617117e+01 3.1728826086835800e+00 0 0 0
101 1 8.1457956945220200e+00 2.1641891143327939e+01 4.5451734517778002e+00 0 0 0
110 1 2.8617613794429619e+00 2.6025537943170285e+01 2.8209559339766406e+00 0 -1 0
102 1 1.5833565383436270e+00 2.4430510121588689e+01 1.3534917811040201e+00 0 0 0
105 1 4.6993501109983491e+00 2.4307715055442699e+01 4.3561651415355271e+00 0 0 0
81 1 9.2321115251484542e+00 2.6103377412134563e+01 2.8181634107088525e+00 0 -1 0
103 1 7.5634244754496605e+00 2.4611200546267021e+01 1.3637344303064689e+00 0 0 0
2 1 2.4562195956170507e-01 2.9606676430891156e+01 2.9617080161378055e+00 0 -1 0
1 1 1.6338607945617414e+00 2.8013637655616591e+01 4.3205116437478974e+00 0 -1 0
4 1 6.2451486206734019e+00 2.9341762557818100e+01 3.2247435158478091e+00 0 -1 0
3 1 4.5685450748548355e+00 2.8052824059548911e+01 1.6531596488269222e+00 0 -1 0
11 1 7.7666623326517765e+00 3.0804979985763772e+01 1.6220293983723713e+00 0 -1 0
14 1 1.3369391478680928e+00 2.8297036287171471e+00 4.6406598254489344e+00 0 0 0
27 1 5.9640358673374685e+00 8.8691173429858572e-01 6.1534062423910720e+00 0 0 0
42 1 4.3695633364069284e+00 2.6218328743516839e+00 7.4623982613096009e+00 0 0 0
19 1 7.5201518627176105e+00 2.5182019151488757e+00 4.9081096797792041e+00 0 0 0
10 1 2.7458379361060978e+00 4.4063363789078496e+00 6.2053426326993222e+00 0 0 0
46 1 1.2563690540675938e+00 6.0926635615470310e+00 7.7508788546190477e+00 0 0 0
45 1 9.2187103645418134e+00 4.2491874581874685e+00 6.6105032629105747e+00 0 0 0
50 1 7.3182831774874462e+00 5.8007520475680376e+00 7.6079493505020510e+00 0 0 0
54 1 5.6641475973853588e+00 7.5594446921531020e+00 6.2769420036145096e+00 0 0 0
55 1 4.2736087242344460e+00 9.1630548034744379e+00 7.7387182132697072e+00 0 0 0
25 1 7.4815775350413851e+00 8.7496203350515103e+00 4.8315548734332818e+00 0 0 0
93 1 2.5153255793241249e+00 1.0696780109835698e+01 6.0775621086112031e+00 0 0 0
113 1 1.2086524659235467e+00 1.1862047327850837e+01 7.8582629345902655e+00 0 0 0
82 1 4.2471949477899482e+00 1.2274404705508191e+01 4.7700054948491637e+00 0 0 0
116 1 6.2357595490117079e+00 1.3558851146209507e+01 6.6918217425006041e+00 0 0 0
37 1 9.0124331166707865e+00 1.0515267871447714e+01 6.2954789469081929e+00 0 0 0
117 1 7.7340666879882551e+00 1.1869306323415170e+01 8.2522028684027511e+00 0 0 0
89 1 1.6427283628999785e+00 1.5214681229938691e+01 4.8061702743714401e+00 0 0 0
107 1 3.2433015065880877e+00 1.6907652268912820e+01 6.0423937501912492e+00 0 0 0
122 1 4.5025998035415302e+00 1.5304079808337878e+01 7.6629742490602322e+00 0 0 0
92 1 7.9976289863242442e+00 1.5522536209739675e+01 5.1647124015969945e+00 0 0 0
138 1 9.5687090462353002e+00 1.6769672163754862e+01 6.6783824444631987e+00 0 0 0
121 1 1.6046979764974090e+00 1.8202470267702509e+01 7.8500852667045669e+00 0 0 0
97 1 4.8765355695798567e+00 1.8568083734221695e+01 4.7858893710686887e+00 0 0 0
146 1 6.5664792770924771e+00 2.0495054098769550e+01 6.2784731496976161e+00 0 0 0
125 1 7.5992030983985863e+00 1.8606427631871952e+01 7.9850091886003671e+00 0 0 0
95 1 1.3637934580609781e+00 2.1527785634479855e+01 4.8461071297628182e+00 0 0 0
106 1 3.0556578782191766e+00 2.2954233453950081e+01 6.0360411279590300e+00 0 0 0
71 1 8.1063711551034228e+00 3.0756880464197017e+01 1.3820316569662404e+01 0 -1 0
130 1 4.8959515097477420e+00 2.1808763328713169e+01 7.3878029441358706e+00 0 0 0
86 1 9.7293856410027004e+00 2.2881511918103932e+01 6.2477874998238105e+00 0 0 0
134 1 1.4324900370867122e+00 2.4782402353294735e+01 7.6419207999034127e+00 0 0 0
159 1 9.6175734260292955e+00 2.6005672889502506e+01 1.5264864744954625e+01 0 -1 0
111 1 6.2474773675755308e+00 2.5874290184522408e+01 6.0382777383330799e+00 0 -1 0
32 1 5.0634155437532868e+00 2.7297266771060983e+01 7.7791106246562096e+00 0 -1 0
137 1 7.7916980241056839e+00 2.4425702319931993e+01 7.5798094515318759e+00 0 0 0
38 1 1.6547806435513603e+00 3.0634921593824394e+01 7.5976630928759574e+00 0 -1 0
28 1 3.1672627329989433e+00 2.8726660478129752e+01 6.2440955837342571e+00 0 -1 0
9 1 4.4210866322706268e+00 3.0615656982652204e+01 4.7442365183274138e+00 0 -1 0
5 1 7.7557426922243256e+00 2.7583657468293630e+01 4.7052142848109684e+00 0 -1 0
43 1 7.6056013654708385e+00 3.0817769688806237e+01 7.9559762531700748e+00 0 -1 0
29 1 9.4636267423562384e+00 2.9054111311700254e+01 6.1421459607464381e+00 0 -1 0
39 1 3.2520123361557909e+00 1.1349421608057948e+00 9.0598437464023380e+00 0 0 0
40 1 1.9462608784415361e+00 2.9277586214869875e+00 1.0482184048812304e+01 0 0 0
44 1 9.3600241726465310e+00 9.8167413838014161e-01 9.8900444761607353e+00 0 0 0
49 1 7.4915323457398699e+00 2.9318464076279867e+00 1.1092885553066020e+01 0 0 0
59 1 3.2833236399662602e+00 4.5006615559521013e+00 1.2305651112403131e+01 0 0 0
48 1 5.7742577562168673e+00 4.1879829451091357e+00 9.2544048058367903e+00 0 0 0
47 1 4.3635397700861045e+00 6.1801795354022442e+00 1.0679629295731818e+01 0 0 0
52 1 2.7088165813950735e+00 7.4842331022352804e+00 9.3049777021700510e+00 0 0 0
53 1 1.2443401346334975e+00 8.8551323376304314e+00 1.1215630769417007e+01 0 0 0
61 1 5.8692454335500166e+00 7.8555872037123393e+00 1.2335550596752711e+01 0 0 0
57 1 8.7368684919290160e+00 7.5060879581348319e+00 9.2659451529063723e+00 0 0 0
56 1 7.3980945262389799e+00 9.0799057615047509e+00 1.0771902627646389e+01 0 0 0
114 1 2.8086277236049066e+00 1.3360904817577143e+01 9.1799939870946758e+00 0 0 0
140 1 5.9890948684186904e+00 1.0778840315649855e+01 9.3361639333929656e+00 0 0 0
115 1 4.1633345183717312e+00 1.2271193873936209e+01 1.0896630928365541e+01 0 0 0
118 1 9.6501252373463320e+00 1.3425109345061443e+01 9.4589951814487350e+00 0 0 0
120 1 1.6250553659436389e+00 1.5077887178837907e+01 1.1102527579605518e+01 0 0 0
145 1 3.0960643002928370e+00 1.7121443302742158e+01 1.2039609809906226e+01 0 0 0
67 1 6.4700678695228495e+00 2.9166260522065798e+01 1.5201586123910502e+01 0 -1 0
123 1 6.0736990711035199e+00 1.6931978612376859e+01 9.3605232411038841e+00 0 0 0
143 1 6.6821758722082025e+00 1.3987510901317883e+01 1.2311968653934466e+01 0 0 0
124 1 7.6910121923020505e+00 1.5119310119052477e+01 1.0320846340142298e+01 0 0 0
144 1 9.3283668417634011e+00 1.6583727416689726e+01 1.2322191537771522e+01 0 0 0
128 1 3.0905383148435988e+00 2.0133624019332188e+01 8.8886666080045629e+00 0 0 0
129 1 4.4417017951462530e+00 1.8785717506297480e+01 1.0588694894162630e+01 0 0 0
131 1 8.9978527740128023e+00 2.0140811323941193e+01 9.6554655952168638e+00 0 0 0
133 1 1.3572613983841222e-01 2.3033327190260664e+01 9.1134109202269880e+00 0 0 0
127 1 1.6688014379423779e+00 2.1420006767424894e+01 1.0630364835288599e+01 0 0 0
136 1 6.2713394509448896e+00 2.3150342841303051e+01 9.2032147544397844e+00 0 0 0
132 1 7.2968440266464505e+00 2.1470940885580220e+01 1.1080776608728629e+01 0 0 0
119 1 3.2601590908969809e+00 2.5948071240483564e+01 9.1311442058627801e+00 0 -1 0
35 1 3.8295750708979576e-01 2.6628335358326510e+01 1.2313352633452013e+01 0 -1 0
135 1 4.8850147002881554e+00 2.4298666063570067e+01 1.0855757210877591e+01 0 0 0
142 1 6.4105891866418565e+00 2.6110973804558604e+01 1.2012841232672614e+01 0 -1 0
139 1 9.3967933364014371e+00 2.6196778476378093e+01 9.2352290502788872e+00 0 -1 0
62 1 3.1251687457463224e+00 2.9326734104923176e+01 1.2316158238612390e+01 0 -1 0
31 1 1.9063835299392067e+00 2.7982352394328181e+01 1.0604355389912351e+01 0 -1 0
41 1 4.8750460361334476e+00 3.0502234404931521e+01 1.0754409197909839e+01 0 -1 0
33 1 6.1253370740938680e+00 2.9009825202184778e+01 9.5574879377947468e+00 0 -1 0
58 1 9.6042586540738064e+00 2.9262053941544430e+01 1.2197189468422422e+01 0 -1 0
34 1 7.8785875318880692e+00 2.7745442932021298e+01 1.0840050845451589e+01 0 -1 0
69 1 1.2238454395575786e+00 6.2428567993616658e-02 1.3676045933245454e+01 0 0 0
70 1 3.1503813965580614e+00 1.0823183547055959e+00 1.5438881106153582e+01 0 0 0
64 1 6.1935053282051857e+00 9.0386868162963507e-01 1.2446634805815764e+01 0 0 0
73 1 4.6953404396885494e+00 2.7221553362412978e+00 1.4161823767590201e+01 0 0 0
13 1 6.2881563858650251e+00 1.0781542829159498e+00 7.6258093779315569e-02 0 0 0
72 1 1.1681786746935692e+00 5.6445974344569017e+00 1.3897031163795294e+01 0 0 0
65 1 1.2299209164828090e-01 2.9959198860857306e+01 1.5534180574731137e+01 0 -1 0
74 1 6.0444462383336308e+00 4.5309668538871941e+00 1.5611433471705643e+01 0 0 0
76 1 8.8173608732691147e+00 4.5554662318139432e+00 1.2826441476081474e+01 0 0 0
75 1 7.4868163032878874e+00 6.3743418000727843e+00 1.3938700780973706e+01 0 0 0
112 1 9.6729624418191591e+00 2.3526482532301650e+01 9.8114007139010306e-02 0 0 0
77 1 4.4104603735378296e+00 9.2177084980085731e+00 1.4220596335793495e+01 0 0 0
83 1 9.2217534694887178e+00 1.0775308502619518e+01 2.9407611229093866e-01 0 0 0
63 1 2.6197120921533052e+00 1.0450533127237872e+01 1.2364876601503479e+01 0 0 0
147 1 1.5074046292586087e+00 1.2096077206778981e+01 1.4171658689136235e+01 0 0 0
109 1 6.2528609398436590e+00 1.4036272716632643e+01 3.6955849278238045e-01 0 0 0
78 1 9.3529582795879609e+00 1.0377855841187703e+01 1.2626782363316195e+01 0 0 0
149 1 7.7311284969363898e+00 1.1921546486391724e+01 1.3888578462994300e+01 0 0 0
150 1 9.1709665668656619e+00 1.3475312829080249e+01 1.5380133938165731e+01 0 0 0
153 1 1.3234009477938521e-01 1.6862896192075127e+01 1.5463236733054028e+01 0 0 0
148 1 3.5465660911050567e+00 1.3728901536617760e+01 1.5388048931805221e+01 0 0 0
155 1 4.7414523770753094e+00 1.5369381709894359e+01 1.3460989328368353e+01 0 0 0
154 1 1.5400648044006444e+00 1.8365866767199464e+01 1.3811990949905438e+01 0 0 0
163 1 4.4362402415244789e-01 2.0345619820040255e+01 1.2645337215638657e+01 0 0 0
108 1 9.5820457956519096e+00 1.6957542098543108e+01 1.7650860685047248e-01 0 0 0
141 1 6.0938375314274120e+00 1.9675644413297555e+01 1.2398945177612568e+01 0 0 0
156 1 6.2895443502451212e+00 1.7253327929615473e+01 1.5336983522918858e+01 0 0 0
88 1 2.9879614303033666e+00 1.6987533241059111e+01 2.4663500124492377e-01 0 0 0
158 1 7.9644710323969576e+00 1.8424545385591763e+01 1.3877060243477329e+01 0 0 0
164 1 3.2483512091779079e+00 2.2783717592631199e+01 1.2537258800885407e+01 0 0 0
160 1 8.3172315258852880e-02 2.3490714102305731e+01 1.5587769531076026e+01 0 0 0
157 1 4.6221020323890007e+00 2.1352708874812265e+01 1.4126750406108879e+01 0 0 0
162 1 5.7694939920170736e+00 2.3597387821300309e+01 1.5379984321101290e+01 0 0 0
152 1 9.0948610952921545e+00 2.3070047134799331e+01 1.2582487850147466e+01 0 0 0
161 1 1.7498126103902099e+00 2.4847342676071236e+01 1.3747856409926399e+01 0 0 0
68 1 3.2448698401149860e+00 2.6485667098259320e+01 1.5396268339898011e+01 0 -1 0
30 1 6.1111308017717674e+00 2.6303604899467054e+01 9.5007882376566558e-02 0 -1 0
1119 1 5.1355635928312951e-02 1.4873641066106642e+00 6.5502411957894449e+00 0 -1 -2
26 1 1.8906634611451107e-02 2.6433152284141158e+01 6.1067512719784958e+00 0 -1 0
1300 1 5.1351958367485406e-01 1.6840545259692627e+00 3.4379576593932187e-01 1 4 2
1003 1 3.0945771518676957e-01 1.8129451633918009e+01 4.3277655067602865e+00 1 0 2
167 1 1.8870767018693950e+00 2.6811418873199910e+00 1.7132428459200710e+01 0 0 0
240 1 9.1274556266188895e+00 2.9302475640192959e+01 3.1039131966825330e+01 0 -1 -1
208 1 5.9385112422808302e+00 1.0218292935656930e+00 1.9100066507184465e+01 0 0 0
170 1 7.6319381615825286e+00 2.6376848626277920e+00 1.7109091806137236e+01 0 0 0
180 1 2.9410327078548155e+00 4.1473805742707164e+00 1.8552443149861844e+01 0 0 0
172 1 4.6812059723971338e+00 5.8454155470890177e+00 1.7254606428353476e+01 0 0 0
179 1 9.5016415165752033e+00 4.4100644466929095e+00 1.8729358730153720e+01 0 0 0
191 1 1.8256773095402917e-01 7.2486700865366700e+00 1.8977860725464986e+01 0 0 0
176 1 1.4032764968245259e+00 9.1466405759285863e+00 1.7233531546397295e+01 0 0 0
207 1 6.3899443680663275e+00 7.1828779939987450e+00 1.9025858276071467e+01 0 0 0
204 1 4.7805398338627088e+00 9.0550250728911070e+00 2.0166524923007877e+01 0 0 0
177 1 7.8033720688584349e+00 8.6443281587644023e+00 1.7197493009362375e+01 0 0 0
262 1 1.7551368916098964e+00 1.2198069076152366e+01 2.0057032715624899e+01 0 0 0
248 1 3.5159701023593204e+00 1.0621400686485146e+01 1.8616354475802211e+01 0 0 0
249 1 4.9808761877130996e+00 1.2158844619619577e+01 1.7152893352687222e+01 0 0 0
171 1 9.0907288541295372e+00 1.0433808226954115e+01 1.8698201798776360e+01 0 0 0
267 1 7.8014814270476496e+00 1.2440255025919997e+01 2.0054479297224020e+01 0 0 0
252 1 4.9566630600093065e-01 1.4068496013428923e+01 1.8422827061747206e+01 0 0 0
250 1 2.0264211981710574e+00 1.5367733102338617e+01 1.6692536815379484e+01 0 0 0
259 1 2.9910400803384460e+00 1.6797255422628098e+01 1.8710987404326104e+01 0 0 0
273 1 4.6383916240177419e+00 1.5278437708769017e+01 2.0146949331857698e+01 0 0 0
261 1 6.6997172998510672e+00 1.4149482135017342e+01 1.8669752539929071e+01 0 0 0
251 1 7.8379022575383557e+00 1.5528703911359209e+01 1.6685065329472536e+01 0 0 0
260 1 9.5843446107859229e+00 1.6828504305379887e+01 1.8465032533306612e+01 0 0 0
271 1 1.5671557904928868e+00 1.8602319372421256e+01 2.0160923095811484e+01 0 0 0
178 1 9.2196083316881978e+00 7.0938235006914647e+00 1.5761870942538613e+01 0 0 0
256 1 4.7250362307961407e+00 1.8432292987936620e+01 1.7346383562686107e+01 0 0 0
295 1 6.4772407295050156e+00 2.0157117361899530e+01 1.8785878226686734e+01 0 0 0
254 1 1.6222520971746945e+00 2.1949791048933541e+01 1.7685135603860388e+01 0 0 0
291 1 3.4061684067316342e+00 2.3227993099704705e+01 1.9098462839825864e+01 0 0 0
292 1 9.2614785929695191e+00 2.3071208298598130e+01 1.8963303979676766e+01 0 0 0
258 1 7.6514648092772344e+00 2.1863568489578505e+01 1.6986135668611141e+01 0 0 0
184 1 3.9863398344233764e-01 2.6409446178008075e+01 1.8814196076795547e+01 0 -1 0
253 1 4.7307975349290645e+00 2.4975760152217312e+01 1.7312170889972137e+01 0 0 0
294 1 6.5524001312566975e+00 2.6217708942325245e+01 1.8861658002343546e+01 0 -1 0
166 1 7.9550509810009240e+00 2.7322655073927109e+01 1.6686138361339424e+01 0 -1 0
188 1 3.0681638153865309e+00 2.9040880604036531e+01 1.9026281277905220e+01 0 -1 0
165 1 1.6108891549927276e+00 2.7936221490428103e+01 1.7023078964356536e+01 0 -1 0
168 1 4.9212989391143989e+00 3.0399072907737612e+01 1.7275798870134018e+01 0 -1 0
181 1 9.3621996453591620e+00 2.9051345841677794e+01 1.8566099990041678e+01 0 -1 0
189 1 1.1647982594733683e+00 3.1166621552057677e+01 2.0384994046422122e+01 0 -1 0
190 1 2.9508766105984403e+00 1.4538510100908280e+00 2.1897765014947325e+01 0 0 0
197 1 1.0241053390546433e+00 2.6507729178428892e+00 2.3721985788996484e+01 0 0 0
193 1 4.4912239012133037e+00 2.8675200786004615e+00 2.0334662699521807e+01 0 0 0
195 1 9.2726656309903355e+00 9.7131837023434131e-01 2.1994758735558634e+01 0 0 0
196 1 7.8401590769193374e+00 2.7204771375176091e+00 2.3405284540227164e+01 0 0 0
198 1 1.2875140683850719e+00 5.4360212091395992e+00 2.0368920471998031e+01 0 0 0
200 1 5.9289569826688302e+00 4.1493039285099460e+00 2.2135270393640440e+01 0 0 0
199 1 4.3189749111351157e+00 5.9720882645886961e+00 2.3311870650764462e+01 0 0 0
201 1 7.6416514815897099e+00 5.7714841952007152e+00 2.0744761904451686e+01 0 0 0
202 1 3.1760685214746309e+00 7.5993119480780162e+00 2.1402887078560603e+01 0 0 0
203 1 1.7567597264210626e+00 8.9133357754171723e+00 2.3262538111678417e+01 0 0 0
206 1 9.0834388589378534e+00 7.3199934712860726e+00 2.2212617410636007e+01 0 0 0
205 1 7.6850264981199041e+00 9.3092602332060927e+00 2.3422373915035408e+01 0 0 0
211 1 2.2915408491779407e-01 1.0575537299713297e+01 2.1873520120852405e+01 0 0 0
269 1 6.2226832956960569e+00 1.0880809119207873e+01 2.1723944310567688e+01 0 0 0
265 1 4.9997627333502965e+00 1.2311477419012435e+01 2.3589572813609102e+01 0 0 0
263 1 3.3106930282041862e+00 1.3688323417469237e+01 2.1675122432486347e+01 0 0 0
268 1 9.2981769341615141e+00 1.3614422657357364e+01 2.1881726738879834e+01 0 0 0
270 1 1.5800464179673479e+00 1.5344202633953088e+01 2.2979930445960008e+01 0 0 0
274 1 6.1765252699866444e+00 1.7065685571219205e+01 2.2010498636046961e+01 0 0 0
275 1 8.3702606681794460e+00 1.5684075820755362e+01 2.3520056694170343e+01 0 0 0
277 1 3.0891013327515893e+00 2.0041891742013810e+01 2.1729187044425807e+01 0 0 0
278 1 4.6093786721393668e+00 1.8358602937512757e+01 2.3597232133640802e+01 0 0 0
281 1 8.0084827635445031e+00 1.8354244945729683e+01 2.0173939265175825e+01 0 0 0
282 1 9.4128250704141383e+00 1.9583844908991921e+01 2.1911974223987727e+01 0 0 0
276 1 1.6408489088911304e+00 2.1436438208356869e+01 2.3569033767460454e+01 0 0 0
279 1 4.8982352238736686e+00 2.1739094537749260e+01 2.0310228266564387e+01 0 0 0
287 1 6.1405188314061867e+00 2.3164485042743948e+01 2.2196449826783699e+01 0 0 0
283 1 7.7543071941781117e+00 2.1208905173161178e+01 2.3071521249044096e+01 0 0 0
286 1 1.3997418875822951e+00 2.4326953452505968e+01 2.0393515293076547e+01 0 0 0
264 1 2.8465405520851763e+00 2.5983590123350346e+01 2.1900501259318638e+01 0 -1 0
182 1 1.5146413276364841e+00 2.7366333936248097e+01 2.3893552868137895e+01 0 -1 0
185 1 4.6966045808477137e+00 2.7394960214052325e+01 2.0314113427533499e+01 0 -1 0
288 1 4.5465990712816051e+00 2.4670116456705543e+01 2.3753841815162154e+01 0 0 0
285 1 7.5994642905215022e+00 2.4398610120811909e+01 2.0546885885477181e+01 0 0 0
266 1 9.4149386922309759e+00 2.6040839464265567e+01 2.1616233561028459e+01 0 -1 0
187 1 8.0271643606470384e+00 2.7483236135553483e+01 2.3471799474870849e+01 0 -1 0
246 1 2.8014746540230027e+00 2.9731319376087583e+01 3.1244698608524551e+01 0 -1 -1
192 1 4.4301340544711403e+00 3.1053350279080668e+01 2.3436982273755618e+01 0 -1 0
186 1 6.2271638260763371e+00 2.8973878014976485e+01 2.1979788423180764e+01 0 -1 0
194 1 7.8597849618379092e+00 3.0545460304555753e+01 2.0416986872394482e+01 0 -1 0
247 1 6.2152908131671607e+00 1.1265436012881052e+00 2.5146774970732238e+01 0 0 0
229 1 4.5234428790735084e+00 2.9273944977885700e+00 2.6489985238255208e+01 0 0 0
210 1 2.8110240056455731e+00 4.4285818465059155e+00 2.4831653805032829e+01 0 0 0
228 1 1.5213241159667208e+00 6.0880320670505554e+00 2.6519251074351445e+01 0 0 0
218 1 7.5929627375087199e+00 2.7716428905633393e+01 2.9535823581584403e+01 0 -1 0
212 1 9.2407720874172501e+00 4.4776623582188728e+00 2.4849698867612467e+01 0 0 0
233 1 7.7124420626894903e+00 6.3138588850722304e+00 2.6458624859881169e+01 0 0 0
236 1 2.8290693687241664e+00 7.8929124200831815e+00 2.7786290676397371e+01 0 0 0
241 1 6.0019252274008181e+00 7.7781713179354988e+00 2.5021713528246600e+01 0 0 0
226 1 4.6061634353149996e+00 9.2810407448771848e+00 2.6729187584194719e+01 0 0 0
280 1 3.1460537214291922e+00 1.0869455760867371e+01 2.4806797285145443e+01 0 0 0
296 1 1.3079485512746813e+00 1.2571078458372876e+01 2.6404314066258898e+01 0 0 0
305 1 9.2266906724230697e+00 1.0772452689239483e+01 2.5099416906596296e+01 0 0 0
302 1 7.6342069034824434e+00 1.2338456317927935e+01 2.6472393331569521e+01 0 0 0
293 1 2.6779356847383990e+00 1.6801663907276691e+01 2.4783900963997255e+01 0 0 0
290 1 6.2962338975921854e+00 1.4242003474180187e+01 2.4892198289475118e+01 0 0 0
309 1 4.5551275644932172e+00 1.5205686096747428e+01 2.6558477776502635e+01 0 0 0
303 1 9.2039329637883309e+00 1.3815922520670318e+01 2.7775330452091566e+01 0 0 0
299 1 9.7159587714490119e+00 1.7132069317027998e+01 2.5269795241285422e+01 0 0 0
314 1 1.4202019995979134e+00 1.8508674862810160e+01 2.6472552192803086e+01 0 0 0
316 1 3.2309811648304398e+00 1.9637331975742484e+01 2.7837261500900830e+01 0 0 0
223 1 4.6684492728782265e+00 3.0884631332181890e+01 2.9771978037802626e+01 0 -1 0
321 1 6.5744333581088750e+00 1.9531371268710217e+01 2.5086947691240475e+01 0 0 0
313 1 7.8785728300051110e+00 1.7990588289137179e+01 2.6807938012145136e+01 0 0 0
323 1 3.1352736095107692e+00 2.3012216857830118e+01 2.5030904234493114e+01 0 0 0
217 1 5.8730417965656292e+00 2.8899606423856639e+01 2.8071995089540827e+01 0 -1 0
317 1 4.8202806834979928e+00 2.1247012884089088e+01 2.6566454328760905e+01 0 0 0
289 1 9.0527390611732592e+00 2.2869589149150073e+01 2.4834324488296673e+01 0 0 0
306 1 1.7260470669942198e+00 2.4584210965249639e+01 2.6390774910515297e+01 0 0 0
215 1 6.4525659982644221e+00 2.6492925023272704e+01 2.5360790935776073e+01 0 -1 0
308 1 7.7266297423749926e+00 2.4442407992029658e+01 2.6670825360788143e+01 0 0 0
221 1 1.4044702210929207e+00 3.0891202544208802e+01 2.6602443914256668e+01 0 -1 0
214 1 2.9302324874777077e+00 2.9279456563951470e+01 2.5199094313081922e+01 0 -1 0
216 1 4.0723684012479850e+00 2.7659651792788559e+01 2.6739811863524828e+01 0 -1 0
224 1 7.5492450608654647e+00 3.0691905742747494e+01 2.6543680145943263e+01 0 -1 0
209 1 9.1532712282463269e+00 2.9583141619805708e+01 2.4847362851651766e+01 0 -1 0
222 1 3.0191408723563615e+00 1.3147581020677777e+00 2.8204926376404906e+01 0 0 0
227 1 1.3853659400149509e+00 3.0285538165005348e+00 2.9488226060983365e+01 0 0 0
213 1 1.5623261650901348e+00 2.7967846200263025e+01 2.9663279444536897e+01 0 -1 0
183 1 4.1382491622933573e-02 2.9218676334828920e+01 2.2274248507185249e+01 0 -1 0
225 1 9.2291590473828435e+00 1.2155803372645897e+00 2.8264165806357553e+01 0 0 0
232 1 7.8261356703693528e+00 2.4419034312149512e+00 2.9860486523180178e+01 0 0 0
245 1 3.1886233466419940e+00 4.4305467724948562e+00 3.1079364149741188e+01 0 0 -1
231 1 6.1659551978649061e+00 4.5747338255382877e+00 2.8015946740562676e+01 0 0 0
230 1 4.3654457767801533e+00 6.0632213671936386e+00 2.9335353168570109e+01 0 0 0
244 1 8.9958350558948581e+00 4.2168867767126352e+00 3.1215170116412089e+01 0 0 -1
239 1 1.6710683045491742e-01 7.5365925539212304e+00 3.1227697407458294e+01 0 0 -1
237 1 1.2746932225296570e+00 9.3260181838014180e+00 2.9527539755592379e+01 0 0 0
242 1 5.8665760727377396e+00 7.5681093669108011e+00 3.1125415960269656e+01 0 0 -1
235 1 9.1860375519880240e+00 7.7017240551670954e+00 2.8281240738238033e+01 0 0 0
234 1 7.6265534580818519e+00 9.3327740301366688e+00 2.9692078657625345e+01 0 0 0
220 1 3.1762197026360068e+00 1.0424510728135527e+01 3.0957508938497945e+01 0 0 -1
301 1 6.3362976443034071e+00 1.0972157832943353e+01 2.8270425796711514e+01 0 0 0
300 1 4.7210915552667094e+00 1.2774785496901863e+01 2.9976544236094121e+01 0 0 0
219 1 9.2098223827959824e+00 2.6264414115330794e+01 2.8109450083133872e+01 0 -1 0
297 1 2.6905264037554022e+00 1.3727625132110735e+01 2.8426872833647110e+01 0 0 0
307 1 1.3195081896956262e+00 1.5413184610434470e+01 2.9856228493521385e+01 0 0 0
169 1 9.3491847562365678e+00 1.1306165410729356e+00 1.5698338217348685e+01 0 0 0
310 1 6.4031229760468875e+00 1.6503184408376185e+01 2.8642595727843897e+01 0 0 0
173 1 6.4130812774314814e+00 1.0458099110560436e+01 1.6023848429101811e+01 0 0 0
312 1 8.1168954103028295e+00 1.4826125920957288e+01 3.0084478091761270e+01 0 0 0
255 1 3.0501550319902533e+00 2.0200247356418608e+01 1.5783146893736291e+01 0 0 0
322 1 1.0161537661613340e-01 2.0014450061417499e+01 3.1124939930489326e+01 0 0 -1
311 1 4.6968748737067001e+00 1.8339925867971324e+01 2.9740287638215911e+01 0 0 0
325 1 6.2181169477662834e+00 2.0361182508032378e+01 3.1222229217440471e+01 0 0 -1
318 1 9.4819902522420882e+00 1.9697049010259157e+01 2.8060843601163931e+01 0 0 0
315 1 1.6708367295452871e+00 2.1321292243545322e+01 2.9247205332774080e+01 0 0 0
324 1 3.1074645490089301e+00 2.2772513354810513e+01 3.1099857876375388e+01 0 0 -1
320 1 6.3490413466018527e+00 2.2774674962380672e+01 2.8316970718543985e+01 0 0 0
175 1 3.1723729319336580e+00 7.5732927077157628e+00 1.5713980688607373e+01 0 0 0
319 1 8.1962632449991766e+00 2.1504377822153401e+01 2.9996963960632492e+01 0 0 0
298 1 2.9399646317060810e+00 2.5942710027282679e+01 2.8297722537580540e+01 0 -1 0
243 1 1.3673521914783182e-01 2.6255305959313993e+01 3.1220771028707020e+01 0 -1 -1
304 1 4.6634206674346101e+00 2.4386835136029838e+01 2.9652556411886813e+01 0 0 0
257 1 9.3706839644668918e+00 1.9762028291175483e+01 1.5741420911723825e+01 0 0 0
692 1 6.0328068227805942e-01 1.1633534538746659e+01 1.6778818498527485e+01 0 2 1
1477 1 1.1790493828400742e-01 2.0719291173667223e+01 2.5368360056714451e+01 0 2 -1
1180 1 3.6197197106085355e-01 1.6500113775892608e+01 2.1033001973397710e+01 2 0 1
340 1 1.1070003238800817e+01 2.6946899205523160e+00 1.4107348103493400e+00 0 0 0
339 1 1.5275549088496048e+01 9.3879149314468036e-01 3.2452242343014168e+00 0 0 0
345 1 1.7265366316014703e+01 2.5631823747530253e+00 2.0380941224858655e+00 0 0 0
342 1 1.2263370700205519e+01 4.1777523799608822e+00 3.0363133359268604e+00 0 0 0
341 1 1.0950805886284089e+01 5.7473139556556481e+00 4.5362734419291799e+00 0 0 0
343 1 1.3904606661850165e+01 5.8100757000215912e+00 1.6920483962091439e+00 0 0 0
348 1 1.8719629719221210e+01 4.2151417461683165e+00 3.3755655938332296e+00 0 0 0
335 1 1.0987263961529472e+01 9.2518167418056443e+00 1.6820739812154413e+00 0 0 0
333 1 1.5465937540972448e+01 7.4456180392862956e+00 3.1354729522413880e+00 0 0 0
347 1 1.7025463208814990e+01 9.0497070116878948e+00 1.6685931271920476e+00 0 0 0
351 1 1.9638328973488761e+01 9.0500388095371687e+00 4.5352261158521081e+00 0 0 0
352 1 1.2257700787086744e+01 1.0561307906201280e+01 3.3872319039794507e+00 0 0 0
404 1 1.3629573442303352e+01 1.2051518034532146e+01 1.5326256865753001e+00 0 0 0
402 1 1.8447675219148660e+01 1.0741379369369264e+01 2.8272855979216338e+00 0 0 0
410 1 1.0771323893080865e+01 1.5310598201246853e+01 2.1119126481141657e+00 0 0 0
411 1 1.2726168755536770e+01 1.7166310044970530e+01 3.4870451002892304e+00 0 0 0
406 1 1.5167149073592491e+01 1.3888454253381386e+01 2.7590382938764688e+00 0 0 0
414 1 1.7309021225549937e+01 1.4848233338937854e+01 1.4500901992316757e+00 0 0 0
416 1 1.8722591486010465e+01 1.6654414136027412e+01 3.0178571525254885e+00 0 0 0
412 1 1.4595341271218281e+01 1.8583414900047302e+01 1.6424409668252229e+00 0 0 0
421 1 1.5809514305669520e+01 2.0394014114685959e+01 3.4900493677741360e+00 0 0 0
419 1 1.0959738135280933e+01 2.1429409142950739e+01 1.6562664703019720e+00 0 0 0
426 1 1.2729456877043551e+01 2.3118345454582297e+01 3.0199350572650814e+00 0 0 0
422 1 1.7279948394883778e+01 2.1961556496957776e+01 1.6973770145173350e+00 0 0 0
423 1 1.8997390143502631e+01 2.3071338787045377e+01 3.3624683341941739e+00 0 0 0
408 1 1.3825230431922360e+01 2.5172038592073129e+01 1.6892313473861325e+00 0 0 0
327 1 1.5561995419775739e+01 2.6450256351211436e+01 3.0662892250911544e+00 0 -1 0
329 1 1.2477622266305692e+01 2.9319642018322909e+01 3.2044743851807280e+00 0 -1 0
328 1 1.0803446289076064e+01 2.8051048869616345e+01 1.3377324399925130e+00 0 -1 0
337 1 1.3888866753353501e+01 3.0979617637484338e+01 1.2868768118271854e+00 0 -1 0
338 1 1.7307332532872486e+01 3.0969612227515412e+01 4.5120623340099684e+00 0 -1 0
332 1 1.8946990076439608e+01 2.9348539196478335e+01 2.8318390970697247e+00 0 -1 0
331 1 1.6919796115261551e+01 2.7961802656043581e+01 1.2950763030310153e+00 0 -1 0
336 1 1.1089324811066220e+01 3.1120813999746744e+01 5.1710090057526212e+00 0 -1 0
380 1 1.2555100504549531e+01 1.6404486247007122e+00 6.9083539643099696e+00 0 0 0
371 1 1.0653131932181243e+01 2.6840895855672637e+00 8.2015044934536192e+00 0 0 0
344 1 1.4033808934245002e+01 3.0966021561019099e+00 4.6971919041319259e+00 0 0 0
367 1 1.8800925982193245e+01 1.1907204322595315e+00 6.3585918164498745e+00 0 0 0
374 1 1.7210181008295091e+01 2.6590248985334117e+00 7.9406376745789853e+00 0 0 0
382 1 1.5681456151867037e+01 4.2597599977514555e+00 6.6174159555054324e+00 0 0 0
373 1 1.4010118716353812e+01 5.7788645163399401e+00 8.0510085655344863e+00 0 0 0
346 1 1.6696977056997540e+01 5.9304350671992996e+00 5.1670535619230833e+00 0 0 0
377 1 1.9755560919457889e+01 6.0225720113131107e+00 7.6318982097940129e+00 0 0 0
385 1 1.2474305779385652e+01 6.8901423295157942e+00 6.2745599371602570e+00 0 0 0