
# Define the lattice
variable	lattice_constant equal 3.900
lattice		bcc ${lattice_constant}
lattice		bcc 3.9
Lattice spacing in x,y,z = 3.9 3.9 3.9

# Define region
# multiples of lattice spacing
region 		simbox block 0 5 0 5 0 5

# Create Atoms
create_box 	1 simbox
Created orthogonal box = (0 0 0) to (19.5 19.5 19.5)
  1 by 1 by 1 MPI processor grid
create_atoms 	1 box
Created 250 atoms
  Time spent = 0.000447989 secs
mass		1 18.015

velocity	all create 600.0 97287

# Define Interatomic Potential
pair_style	sw
pair_coeff	* * mW.sw mW
Reading potential file mW.sw with DATE: 2019-02-27

neighbor 	2.0 bin
neigh_modify	delay 10 check no

# Pressure computations
compute		total_press all pressure thermo_temp
compute		peratom all stress/atom NULL
compute		p all reduce sum c_peratom[1] c_peratom[2] c_peratom[3]
variable	press equal -(c_p[1]+c_p[2]+c_p[3])/(3*vol)

# Density computations
variable	total_mass equal mass(all)
variable	v equal vol
print 		${total_mass}
print 		4503.75
4503.75
print		$v
print		7414.875
7414.875

variable 	density equal v_total_mass/(v_v*18.015)
print 		${density}
print 		0.033716010047371
0.033716010047371


# Run equilibration
thermo_style	custom step temp ke pe c_total_press v_press
thermo		10
dump		1 all atom 10 ${simname}.dump
dump		1 all atom 10 mW_bcc_3.9.dump

fix 		1 all nve
#temp 300.0 300.0 100.0 iso 0.0 0.0 1000.0
timestep	0.0005
run		15000
Neighbor list info ...
  update every 1 steps, delay 10 steps, check no
  max neighbors/atom: 2000, page size: 100000
  master list distance cutoff = 6.3065
  ghost atom cutoff = 6.3065
  binsize = 3.15325, bins = 7 7 7
  1 neighbor lists, perpetual/occasional/extra = 1 0 0
  (1) pair sw, perpetual
      attributes: full, newton on
      pair build: full/bin/atomonly
      stencil: full/bin/3d
      bin: standard
Per MPI rank memory allocation (min/avg/max) = 4.355 | 4.355 | 4.355 Mbytes
Step Temp KinEng PotEng c_total_press v_press 
       0          600    19.311466    -2344.214   -1065578.3   -1065578.3 
      10    594.22536    19.125604   -2344.0283   -1054326.5   -1054326.5 
      20    573.70652     18.46519   -2343.3681   -1024223.1   -1024223.1 
      30    555.83282    17.889911   -2342.7914   -985133.38   -985133.38 
      40     625.5221    20.132914   -2345.0326    -946286.2    -946286.2 
      50    866.70989    27.895731   -2352.7962   -907792.18   -907792.18 
      60    1263.8909    40.679311   -2365.5823   -859096.88   -859096.88 
      70    1752.0883    56.392321   -2381.2965   -791068.07   -791068.07 
      80      2336.03    75.186939   -2400.0925   -706188.48   -706188.48 
      90    3013.1136    96.979401   -2421.8895   -612792.25   -612792.25 
     100    3649.7661    117.47056   -2442.3841   -514883.93   -514883.93 
     110    4165.7756    134.07872   -2458.9914   -419319.25   -419319.25 
     120    4634.5803    149.16756   -2474.0821   -338365.11   -338365.11 
     130    5054.3462    162.67805   -2487.5959   -277876.83   -277876.83 
     140    5364.1685    172.64993   -2497.5699   -232478.22   -232478.22 
     150    5534.9139     178.1455   -2503.0662    -194429.6    -194429.6 
     160    5592.4619    179.99773   -2504.9216   -154951.01   -154951.01 
     170    5576.2973    179.47746   -2504.4024    -122833.6    -122833.6 
     180     5504.043    177.15189   -2502.0831    -95899.66    -95899.66 
     190    5328.3688    171.49768   -2496.4215   -67329.673   -67329.673 
     200    5423.8764    174.57167   -2499.5001   -46424.892   -46424.892 
     210    5679.7372    182.80675   -2507.7449   -39771.339   -39771.339 
     220    5693.6758    183.25538   -2508.1985   -31065.012   -31065.012 
     230    5388.9789    173.44847   -2498.3799   -15458.988   -15458.988 
     240    5361.7895    172.57336   -2497.5011   -7403.2364   -7403.2364 
     250    5724.3212    184.24172   -2509.1918   -2675.1747   -2675.1747 
     260    5722.1619    184.17222   -2509.1152    5717.2086    5717.2086 
     270     5613.892    180.68747   -2505.6268    7641.1647    7641.1647 
     280    5673.6383    182.61045   -2507.5509   -1594.1614   -1594.1614 
     290    5841.3432    188.00816   -2512.9536   -13175.186   -13175.186 
     300    5991.8524    192.85242   -2517.7947   -15015.231   -15015.231 
     310    6209.8458    199.86871   -2524.8213   -15519.428   -15519.428 
     320     6253.929    201.28756   -2526.2364   -16710.177   -16710.177 
     330     6291.654    202.50177   -2527.4504   -17894.351   -17894.351 
     340     6402.796    206.07896   -2531.0341   -23531.689   -23531.689 
     350    6321.7788    203.47136    -2528.432   -28294.636   -28294.636 
     360      5909.99    190.21761   -2515.1641   -22972.663   -22972.663 
     370    5725.3687    184.27544   -2509.2142   -23679.049   -23679.049 
     380    6059.7893    195.03902   -2519.9945   -24502.943   -24502.943 
     390    6280.4834    202.14223   -2527.1018   -12857.283   -12857.283 
     400    6197.3008    199.46494   -2524.4185   -3568.4804   -3568.4804 
     410      6069.57    195.35382   -2520.3062   -637.20397   -637.20397 
     420    6089.2955     195.9887   -2520.9313   -7098.3579   -7098.3579 
     430    6505.0966    209.37158   -2534.3331   -11784.783   -11784.783 
     440     6556.079    211.01249   -2535.9711   -6925.6887   -6925.6887 
     450    6312.0309    203.15761   -2528.1026    710.56657    710.56657 
     460     6321.677    203.46808   -2528.4236    6480.5204    6480.5204 
     470    6466.2299    208.12063   -2533.0724    4894.6492    4894.6492 
     480    6709.3163    215.94455   -2540.9155    1742.1731    1742.1731 
     490    6457.9315    207.85354   -2532.8034    2166.4865    2166.4865 
     500    6344.2074    204.19324   -2529.1456    1760.1831    1760.1831 
     510    6376.1912    205.22266   -2530.1753    2676.5194    2676.5194 
     520       6426.5    206.84189    -2531.789    1065.2387    1065.2387 
     530    6607.0696    212.65366   -2537.6156   -241.57941   -241.57941 
     540    6513.4299     209.6398   -2534.5972   -681.43191   -681.43191 
     550    6353.8612    204.50395   -2529.4556    4922.8675    4922.8675 
     560    6543.0103    210.59187   -2535.5423   -1676.6334   -1676.6334 
     570    6963.0686    224.11177   -2549.0839   -16249.984   -16249.984 
     580    6725.1536    216.45429   -2541.4238   -7237.9649   -7237.9649 
     590    6102.7105    196.42047   -2521.3552     7001.465     7001.465 
     600    6286.6592      202.341   -2527.2931    6938.4414    6938.4414 
     610    6778.1159    218.15892   -2543.1227   -1375.5321   -1375.5321 
     620    6915.3193    222.57492   -2547.5451    8866.7159    8866.7159 
     630     6484.099    208.69576     -2533.65    31890.583    31890.583 
     640    6166.4976    198.47351   -2523.4205    41178.532    41178.532 
     650    6363.1301    204.80228   -2529.7495     28560.24     28560.24 
     660    6996.1023    225.17498    -2550.142    8488.1286    8488.1286 
     670    7192.4164     231.4935     -2556.47    864.30775    864.30775 
     680    6670.7617    214.70364    -2539.649    12548.227    12548.227 
     690     6507.801    209.45863   -2534.4077    15034.458    15034.458 
     700    6689.7689     215.3154   -2540.2725    7581.8081    7581.8081 
     710    6766.9639    217.79998   -2542.7633    6924.6377    6924.6377 
     720    6566.6645    211.35319   -2536.3058    5596.4947    5596.4947 
     730    6491.8327    208.94468   -2533.8989   -9837.7459   -9837.7459 
     740    6519.4797    209.83451   -2534.7905   -26263.112   -26263.112 
     750    6426.3258    206.83628   -2531.7947   -29147.206   -29147.206 
     760    6179.0231    198.87665   -2523.8253   -24619.964   -24619.964 
     770    6178.0114    198.84409   -2523.7908   -23736.669   -23736.669 
     780      6494.11    209.01797   -2533.9822    -15722.61    -15722.61 
     790    6619.1055    213.04105   -2537.9995   -12524.181   -12524.181 
     800    6699.8371    215.63946   -2540.5965     -6683.65     -6683.65 
     810    6732.9813    216.70623   -2541.6694    310.69507    310.69507 
     820    6580.6325    211.80276   -2536.7529    817.66256    817.66256 
     830    6567.6932     211.3863   -2536.3534   -2637.2669   -2637.2669 
     840    6348.6911    204.33755   -2529.2846     7613.537     7613.537 
     850    6503.1697    209.30956   -2534.2646    13947.813    13947.813 
     860    6778.5034    218.17139   -2543.1386    10570.066    10570.066 
     870    6629.5463    213.37709   -2538.3439    7192.5406    7192.5406 
     880    6231.0899    200.55247   -2525.5001    3410.8983    3410.8983 
     890    6134.6278    197.44776    -2522.413    331.41345    331.41345 
     900    5935.6037    191.04201   -2515.9892    11018.126    11018.126 
     910    6150.2209    197.94963   -2522.9052    25232.732    25232.732 
     920     6567.791    211.38945    -2536.365    29969.044    29969.044 
     930    6437.9205    207.20947    -2532.167    31110.816    31110.816 
     940    6378.3786    205.29307   -2530.2485    34698.658    34698.658 
     950    6628.7907    213.35277   -2538.3178      43802.2      43802.2 
     960    6757.0462    217.48078   -2542.4501    45332.295    45332.295 
     970    6479.5929    208.55073   -2533.5177    36859.108    36859.108 
     980    6055.7099    194.90772   -2519.8558    30103.621    30103.621 
     990    6317.5707    203.33592   -2528.2896    23858.918    23858.918 
    1000    6809.7663    219.17761   -2544.1613     26010.71     26010.71 
    1010    6598.4323    212.37567   -2537.3292    27537.081    27537.081 
    1020    6499.5084    209.19172   -2534.1534    22983.965    22983.965 
    1030    6391.6244    205.71939   -2530.6773    27589.093    27589.093 
    1040    6451.4643    207.64539   -2532.6012    25701.403    25701.403 
    1050    6614.0977    212.87987    -2537.859    22750.975    22750.975 
    1060    6304.8763    202.92734   -2527.8702    18864.442    18864.442 
    1070    6512.0309    209.59477   -2534.5632    9050.9353    9050.9353 
    1080    6610.5606    212.76602   -2537.7209    1978.8554    1978.8554 
    1090    6876.5392    221.32675   -2546.2906    -4348.434    -4348.434 
    1100    7043.4694    226.69953   -2551.6757   -6483.6479   -6483.6479 
    1110    6794.6187    218.69007   -2543.6455   -4851.7105   -4851.7105 
    1120    6902.5831    222.16499   -2547.1357   -7535.0551   -7535.0551 
    1130     6926.539    222.93603   -2547.9132   -2905.4232   -2905.4232 
    1140    6570.3498    211.47181   -2536.4319    9999.9595    9999.9595 
    1150    6367.2553    204.93505   -2529.8943    13596.811    13596.811 
    1160    6419.0592     206.6024   -2531.5672    15645.114    15645.114 
    1170    6341.5675    204.10827   -2529.0768     25447.73     25447.73 
    1180    6144.8254    197.77597   -2522.7207     34039.68     34039.68 
    1190    6513.5063    209.64225    -2534.616    32594.076    32594.076 
    1200    6460.2335    207.92763   -2532.8944    29353.714    29353.714 
    1210    6158.5403     198.2174   -2523.1606    29666.514    29666.514 
    1220    6571.5033    211.50893   -2536.4761    24015.299    24015.299 
    1230    6811.0612    219.21929   -2544.2034    25067.422    25067.422 
    1240    6388.0723    205.60506   -2530.5508    38738.741    38738.741 
    1250    6601.3751    212.47038   -2537.4345    40147.777    40147.777 
    1260    6977.6425    224.58084   -2549.5589    28601.246    28601.246 
    1270    6951.7641    223.74792   -2548.7088    26897.771    26897.771 
    1280    7091.7726    228.25421   -2553.2221    21905.022    21905.022 
    1290     7118.355    229.10978   -2554.0915    16475.542    16475.542 
    1300    6571.3767    211.50486   -2536.4647    22271.688    22271.688 
    1310    6306.5133    202.98002   -2527.9292    17792.582    17792.582 
    1320    6685.8021    215.18773    -2540.168    8887.7041    8887.7041 
    1330    6674.8976    214.83676   -2539.7972    1515.5766    1515.5766 
    1340    6869.1067    221.08753   -2546.0506   -3460.1226   -3460.1226 
    1350    7036.5123    226.47561   -2551.4659    140.30468    140.30468 
    1360    6477.4028    208.48024   -2533.4198    3572.2628    3572.2628 
    1370    6743.0241    217.02946   -2542.0018    3546.6642    3546.6642 
    1380    6845.5051     220.3279   -2545.2988    8522.4162    8522.4162 
    1390    6644.8513     213.8697   -2538.8285    20881.099    20881.099 
    1400    6670.8625    214.70689   -2539.6613    27099.529    27099.529 
    1410    6991.3878    225.02324   -2549.9946    26052.712    26052.712 
    1420     6841.394    220.19558   -2545.1687    14478.516    14478.516 
    1430    6367.9265    204.95666   -2529.8961    7448.1849    7448.1849 
    1440    6663.8641    214.48164   -2539.4577    9958.0436    9958.0436 
    1450    6701.8571    215.70447   -2540.6614    18818.788    18818.788 
    1460    6820.8553    219.53452    -2544.498    23466.353    23466.353 
    1470    6801.2492    218.90348    -2543.868    34138.379    34138.379 
    1480    6609.4112    212.72903   -2537.6822    45346.528    45346.528 
    1490    6745.8249    217.11961   -2542.0816    35563.848    35563.848 
    1500     6905.974    222.27413   -2547.2433    19309.268    19309.268 
    1510    6705.7432    215.82955   -2540.7938    15700.149    15700.149 
    1520    6433.4094    207.06428   -2532.0208     16364.62     16364.62 
    1530    6515.6349    209.71077   -2534.6661    9436.5783    9436.5783 
    1540    6855.2124    220.64033   -2545.6074   -2096.9399   -2096.9399 
    1550    6967.1368    224.24271   -2549.2131   -5895.0735   -5895.0735 
    1560    6802.7713    218.95247    -2543.904    2519.8585    2519.8585 
    1570    6835.5585    220.00776   -2544.9778    6374.4478    6374.4478 
    1580    6525.2609    210.02058   -2534.9784    11176.033    11176.033 
    1590    6359.8224    204.69582   -2529.6413     17025.47     17025.47 
    1600    6768.5696    217.85167   -2542.8194    10484.411    10484.411 
    1610    6858.6235    220.75012   -2545.7182    5433.4316    5433.4316 
    1620    6509.6613     209.5185   -2534.4748    6857.8824    6857.8824 
    1630    6345.1664    204.22411   -2529.1689    7120.7668    7120.7668 
    1640    6628.8116    213.35345   -2538.3277    3793.9754    3793.9754 
    1650    6545.6372    210.67641   -2535.6242     3517.033     3517.033 
    1660    6733.5254    216.72374   -2541.6812   -8730.7031   -8730.7031 
    1670     6798.758     218.8233   -2543.7951   -22300.325   -22300.325 
    1680    6374.9872    205.18391   -2530.1192   -31586.913   -31586.913 
    1690    6563.5254    211.25216   -2536.2123   -35339.759   -35339.759 
    1700    6621.3643    213.11375   -2538.0711   -22687.743   -22687.743 
    1710    6530.6519     210.1941   -2535.1395   -13466.224   -13466.224 
    1720    6751.1984    217.29256   -2542.2573   -19056.447   -19056.447 
    1730    6727.9962    216.54578   -2541.5037   -14096.216   -14096.216 
    1740    6574.8034    211.61515    -2536.575   -5178.3671   -5178.3671 
    1750    6429.6573    206.94351   -2531.8915   -1587.9534   -1587.9534 
    1760     6668.942    214.64508   -2539.6064   -3990.5619   -3990.5619 
    1770    6783.7955    218.34172   -2543.3165   -1015.5975   -1015.5975 
    1780    6268.2044    201.74702   -2526.7019    1328.1335    1328.1335 
    1790    6021.4727    193.80577   -2518.7452   -3754.3868   -3754.3868 
    1800    6605.3608    212.59866   -2537.5769   -8837.3011   -8837.3011 
    1810    6661.9361    214.41958   -2539.3905   -1752.2991   -1752.2991 
    1820    6218.1193      200.135   -2525.0878     9071.785     9071.785 
    1830    6134.0694    197.42978   -2522.3822    11799.139    11799.139 
    1840    6387.4137    205.58387   -2530.5433    7308.2604    7308.2604 
    1850    6519.1596    209.82421   -2534.7838   -2289.1708   -2289.1708 
    1860    6562.2892    211.21237   -2536.1648    -7333.688    -7333.688 
    1870    6705.0048    215.80578   -2540.7636   -9157.3897   -9157.3897 
    1880    6741.8447    216.99151   -2541.9435   -11116.556   -11116.556 
    1890    6860.3733    220.80644   -2545.7622    -6874.754    -6874.754 
    1900    6833.6554     219.9465   -2544.9176    1837.7588    1837.7588 
    1910    6267.8265    201.73486   -2526.6806    10231.556    10231.556 
    1920    6105.1887    196.50024   -2521.4516    2495.9498    2495.9498 
    1930    6267.2247    201.71549   -2526.6809   -2349.4995   -2349.4995 
    1940    6227.3751     200.4329    -2525.384    8945.9553    8945.9553 
    1950    6419.2494    206.60852   -2531.5577     17038.72     17038.72 
    1960    6867.1043    221.02308   -2545.9889      6701.92      6701.92 
    1970    6944.7186    223.52116   -2548.4882   -7126.2026   -7126.2026 
    1980    6581.9994    211.84676   -2536.7912   -5385.6238   -5385.6238 
    1990    6629.1006    213.36275    -2538.318   -1834.5907   -1834.5907 
    2000    6839.6607    220.13979    -2545.109    4827.1509    4827.1509 
    2010    6567.8208    211.39041   -2536.3458    9764.7309    9764.7309 
    2020    6305.1972    202.93766   -2527.8907    8647.2151    8647.2151 
    2030    6259.7466     201.4748   -2526.4336   -4313.3836   -4313.3836 
    2040    6167.5609    198.50773   -2523.4677   -17356.012   -17356.012 
    2050    6038.5736    194.35618   -2519.3062   -16838.366   -16838.366 
    2060    6212.1183    199.94185   -2524.8899   -12731.967   -12731.967 
    2070    6730.2217    216.61741   -2541.5869     -10352.6     -10352.6 
    2080    6703.1149    215.74496   -2540.7267    -5929.215    -5929.215 
    2090    5914.4564    190.36137   -2515.2925   -1274.4969   -1274.4969 
    2100    6162.6018    198.34812   -2523.3001   -8668.0232   -8668.0232 
    2110    6841.6642    220.20427     -2545.18   -17358.543   -17358.543 
    2120    6854.2397    220.60902   -2545.5747   -18908.732   -18908.732 
    2130    6471.6522    208.29515   -2533.2514   -20819.507   -20819.507 
    2140    6239.3626    200.81873   -2525.7645   -24118.936   -24118.936 
    2150    6519.7405    209.84291   -2534.8021    -22198.08    -22198.08 
    2160    6817.5877    219.42935   -2544.3971   -22986.104   -22986.104 
    2170    6747.9997    217.18961   -2542.1548   -23942.153   -23942.153 
    2180    6361.1911    204.73987   -2529.6944   -24298.569   -24298.569 
    2190    6080.1625    195.69475    -2520.648   -17419.592   -17419.592 
    2200     6066.385    195.25131   -2520.2019   -6716.9503   -6716.9503 
    2210    6357.0306    204.60596   -2529.5695   -9430.1859   -9430.1859 
    2220    6433.9172    207.08062   -2532.0425   -5685.4306   -5685.4306 
    2230    6334.5794    203.88335   -2528.8308   -4382.2087   -4382.2087 
    2240    6392.3741    205.74352   -2530.7211    3354.3641    3354.3641 
    2250    5952.0333    191.57081   -2516.5141    12188.509    12188.509 
    2260    6079.4355    195.67135   -2520.6296    13859.482    13859.482 
    2270    6391.0543    205.70104   -2530.6739    9082.6252    9082.6252 
    2280    6211.2662    199.91442   -2524.8706    13883.171    13883.171 
    2290     6216.977    200.09823   -2525.0483    11131.749    11131.749 
    2300    6648.5682    213.98933   -2538.9569    6160.6208    6160.6208 
    2310    6762.9534     217.6709    -2542.639    5229.1521    5229.1521 
    2320    6563.6033    211.25467   -2536.2084    11999.171    11999.171 
    2330    6660.9316    214.38725   -2539.3494    21450.986    21450.986 
    2340    6901.1806    222.11985   -2547.0857    23150.503    23150.503 
    2350    6952.8191    223.78188   -2548.7542    8389.0901    8389.0901 
    2360    6701.9151    215.70634   -2540.6639   -3487.3997   -3487.3997 
    2370         6609    212.71579   -2537.6752   -10048.713   -10048.713 
    2380    6598.8637    212.38955   -2537.3557   -10298.588   -10298.588 
    2390    6501.0435    209.24113   -2534.2032    -7344.815    -7344.815 
    2400    6458.4203    207.86927   -2532.8355    746.72206    746.72206 
    2410    6444.9725    207.43644   -2532.3896    3367.6862    3367.6862 
    2420    6675.4556    214.85472   -2539.8329   -482.39152   -482.39152 
    2430    6465.6881    208.10319   -2533.0648   -8159.5094   -8159.5094 
    2440    6320.5936    203.43321   -2528.3915   -4407.7355   -4407.7355 
    2450    6440.6111    207.29607   -2532.2652    5512.7158    5512.7158 
    2460     6538.322    210.44097   -2535.3972    13662.256    13662.256 
    2470    6898.5712    222.03587   -2547.0117    14210.086    14210.086 
    2480    6799.8779    218.85935   -2543.8284    10609.959    10609.959 
    2490    6376.0344    205.21762    -2530.173     17513.92     17513.92 
    2500    6439.3028    207.25396   -2532.2105    20698.977    20698.977 
    2510    6730.5691    216.62859   -2541.6101    24439.424    24439.424 
    2520    6462.8652    208.01233   -2532.9657    39173.402    39173.402 
    2530    6557.0917    211.04508    -2536.012    51503.307    51503.307 
    2540    6761.8457    217.63525   -2542.6049    53895.726    53895.726 
    2550    6895.7153    221.94395   -2546.9149    44694.308    44694.308 
    2560    6931.5884    223.09855   -2548.0653    39291.315    39291.315 
    2570    6897.0449    221.98674    -2546.958    39499.391    39499.391 
    2580    6693.3251    215.42986   -2540.3921    43176.461    43176.461 
    2590    6678.6716    214.95823    -2539.921     39438.54     39438.54 
    2600    6882.5789    221.52114   -2546.4928    26382.285    26382.285 
    2610    6930.5417    223.06486   -2548.0325    26592.711    26592.711 
    2620    7053.9217    227.03594   -2551.9977    23722.483    23722.483 
    2630    7335.7023    236.10527   -2561.0897    25759.584    25759.584 
    2640    6987.8642    224.90983   -2549.8736    36315.075    36315.075 
    2650    6714.3635      216.107   -2541.0641     38464.17     38464.17 
    2660    6920.2018    222.73207   -2547.7021    28755.789    28755.789 
    2670    7000.1527    225.30535   -2550.2864    21976.264    21976.264 
    2680    6694.9549    215.48232   -2540.4399    21387.137    21387.137 
    2690    6695.0146    215.48424   -2540.4579    22291.613    22291.613 
    2700     6575.228    211.62881   -2536.5871    23130.396    23130.396 
    2710    6681.3213    215.04351   -2540.0105    26118.878    26118.878 
    2720     6745.755    217.11736   -2542.0891     23584.92     23584.92 
    2730    6441.2468    207.31653    -2532.276    28107.704    28107.704 
    2740    6331.9853    203.79986    -2528.747    32916.278    32916.278 
    2750    6810.5955     219.2043   -2544.1802    22110.304    22110.304 
    2760    6901.4367     222.1281   -2547.1053    10670.444    10670.444 
    2770    6371.5683    205.07387   -2530.0309    17902.582    17902.582 
    2780    6168.3756    198.53396   -2523.4772    28476.258    28476.258 
    2790    6616.1125    212.94472   -2537.9262    33900.671    33900.671 
    2800    6465.7264    208.10442   -2533.0646    40267.648    40267.648 
    2810    6404.6165    206.13755   -2531.0945    38783.416    38783.416 
    2820    6529.6001    210.16025    -2535.135    40184.109    40184.109 
    2830    6234.4218     200.6597   -2525.6166    40944.918    40944.918 
    2840    6106.9219    196.55602   -2521.5141    25774.943    25774.943 
    2850    6255.9874    201.35381   -2526.3107    17957.897    17957.897 
    2860    6574.5822    211.60803   -2536.5806    20102.551    20102.551 
    2870    6471.4257    208.28786    -2533.252    22726.725    22726.725 
    2880    6181.5095    198.95668   -2523.9147     16402.66     16402.66 
    2890    6175.3123    198.75722   -2523.7052     15289.66     15289.66 
    2900    6608.3061    212.69346   -2537.6635    14434.843    14434.843 
    2910    6752.9043    217.34747   -2542.3107    4384.1835    4384.1835 
    2920    6797.6805    218.78862   -2543.7496   -2817.3318   -2817.3318 
    2930    6878.7572    221.39814   -2546.3637    1554.1269    1554.1269 
    2940    6879.2834    221.41508   -2546.3789    -1002.054    -1002.054 
    2950    6834.6527     219.9786   -2544.9459   -9257.0836   -9257.0836 
    2960    6566.6588    211.35301   -2536.3079   -2058.4336   -2058.4336 
    2970    6487.1164    208.79287   -2533.7464    3485.8173    3485.8173 
    2980    6657.1365     214.2651   -2539.2334    13000.302    13000.302 
    2990    6606.0579     212.6211   -2537.5831    19926.667    19926.667 
    3000    6608.3219    212.69397   -2537.6477    4386.8777    4386.8777 
    3010    6771.2847    217.93905   -2542.9125   -9147.4119   -9147.4119 
    3020    6389.9754    205.66632   -2530.6302   -7579.6951   -7579.6951 
    3030    5964.7161    191.97902   -2516.9186   -6992.2373   -6992.2373 
    3040    6416.2483    206.51193   -2531.4762   -15959.809   -15959.809 
    3050    6841.5846    220.20171   -2545.1782   -10350.085   -10350.085 
    3060    6671.8613    214.73903   -2539.7025    355.04044    355.04044 
    3070    6393.7237    205.78696   -2530.7469   -2865.7219   -2865.7219 
    3080    6413.8738    206.43551   -2531.3832     -4992.75     -4992.75 
    3090    6993.7823    225.10031   -2550.0803   -4680.1024   -4680.1024 
    3100    6905.1022    222.24607   -2547.2173   -438.43344   -438.43344 
    3110    6378.8523    205.30831   -2530.2576    4666.5258    4666.5258 
    3120    6304.1648    202.90444   -2527.8562      6928.37      6928.37 
    3130    6674.3965    214.82063   -2539.7789    5695.0741    5695.0741 
    3140    7040.2309     226.5953   -2551.5781    3447.5197    3447.5197 
    3150     6683.755    215.12184   -2540.0724    2387.5511    2387.5511 
    3160     6617.068    212.97547   -2537.9307      893.787      893.787 
    3170    6790.8344    218.56827   -2543.5357     7997.756     7997.756 
    3180    6692.9563    215.41799   -2540.3767    11780.441    11780.441 
    3190    6638.6527    213.67019   -2538.6295    366.37583    366.37583 
    3200    6643.3578    213.82163    -2538.786   -12871.401   -12871.401 
    3210    6661.7057    214.41217   -2539.3655   -19037.624   -19037.624 
    3220    6925.8449    222.91369   -2547.8812   -19559.121   -19559.121 
    3230    6907.1184    222.31097   -2547.2694   -9579.8519   -9579.8519 
    3240    6744.2759    217.06975   -2542.0272   -1637.3572   -1637.3572 
    3250    6630.3476    213.40288   -2538.3595   -1857.9151   -1857.9151 
    3260    6623.2827    213.17549    -2538.128   -6990.0715   -6990.0715 
    3270     6799.217    218.83808   -2543.8034   -10758.303   -10758.303 
    3280    6767.8645    217.82897   -2542.7967   -9872.3781   -9872.3781 
    3290    6581.7347    211.83824   -2536.7888   -8658.3558   -8658.3558 
    3300    6657.6113    214.28039   -2539.2484   -9110.7344   -9110.7344 
    3310     6494.293    209.02386   -2533.9729   -4437.4464   -4437.4464 
    3320    6484.3589    208.70412   -2533.6745    3721.2156    3721.2156 
    3330       6192.3    199.30398   -2524.2608    7171.0595    7171.0595 
    3340    5960.2345    191.83477   -2516.7906    6347.5304    6347.5304 
    3350    5868.8208    188.89255   -2513.8476   -436.25673   -436.25673 
    3360     5986.012    192.66444   -2517.6064   -11405.355   -11405.355 
    3370    6615.7467    212.93294   -2537.8963    -8665.021    -8665.021 
    3380    6908.1837    222.34525   -2547.3211    4296.2954    4296.2954 
    3390    6496.0486    209.08037   -2534.0265    14188.138    14188.138 
    3400    6533.4121    210.28294   -2535.2392    12276.336    12276.336 
    3410    6774.1941    218.03269   -2543.0099    11571.262    11571.262 
    3420     6635.787    213.57795   -2538.5305    4964.5258    4964.5258 
    3430     6826.054    219.70184   -2544.6699    -4800.019    -4800.019 
    3440    6970.8144    224.36107   -2549.3182   -13481.306   -13481.306 
    3450    7100.4638    228.53394   -2553.4975   -8364.0965   -8364.0965 
    3460    7026.3101    226.14724    -2551.114     12867.92     12867.92 
    3470    6792.5023    218.62196   -2543.5812    30779.383    30779.383 
    3480    6764.5842    217.72339   -2542.6922     21770.58     21770.58 
    3490    6672.5542    214.76134   -2539.7264    11224.423    11224.423 
    3500    6743.1897    217.03479   -2541.9913    15337.637    15337.637 
    3510    7132.2066    229.55561   -2554.5337     30778.65     30778.65 
    3520    6973.9044    224.46052   -2549.4275    41297.592    41297.592 
    3530      6612.07     212.8146   -2537.7714    41285.398    41285.398 
    3540    6401.3359    206.03196   -2530.9904    34028.344    34028.344 
    3550     6401.873    206.04925   -2531.0001    28692.404    28692.404 
    3560    6719.8093    216.28228   -2541.2477    27589.224    27589.224 
    3570    6769.5353    217.88275   -2542.8432    28434.341    28434.341 
    3580    6694.3106    215.46158   -2540.4234    28127.461    28127.461 
    3590    6573.2805    211.56614   -2536.5302    24406.048    24406.048 
    3600    6420.5658    206.65089   -2531.6151    20571.106    20571.106 
    3610    6340.1061    204.06124    -2529.013    16168.389    16168.389 
    3620    6691.3801    215.36726   -2540.3349    17481.398    17481.398 
    3630    6825.3515    219.67924   -2544.6552    28640.275    28640.275 
    3640    6463.2043    208.02325    -2532.975    31702.293    31702.293 
    3650     6441.988    207.34038   -2532.2967    18667.197    18667.197 
    3660    6717.0152    216.19235   -2541.1553    16853.376    16853.376 
    3670    6886.5886     221.6502   -2546.6245    21872.135    21872.135 
    3680    6584.9172    211.94067     -2536.89    22888.186    22888.186 
    3690    6698.2682    215.58896   -2540.5469    26964.591    26964.591 
    3700    6956.8716    223.91231   -2548.8881    32080.059    32080.059 
    3710    6620.4522    213.08439   -2538.0472    40754.035    40754.035 
    3720    6204.4568    199.69526   -2524.6535    54511.358    54511.358 
    3730    6251.1747    201.19891   -2526.1508    56350.007    56350.007 
    3740    6831.1754    219.86668   -2544.8489    44594.535    44594.535 
    3750    6666.1778    214.55611   -2539.5316    32811.579    32811.579 
    3760      6217.21    200.10573   -2525.0445    25334.497    25334.497 
    3770    6683.5876    215.11646   -2540.0903    15727.532    15727.532 
    3780    6942.8665    223.46155   -2548.4243    10777.533    10777.533 
    3790    6975.8905    224.52445   -2549.4941    16620.524    16620.524 
    3800    6639.9457     213.7118   -2538.6689    29344.274    29344.274 
    3810    6494.9793    209.04595   -2533.9947    40159.395    40159.395 
    3820    6853.4119    220.58238   -2545.5569    39975.655    39975.655 
    3830    6876.7411    221.33325    -2546.289    40361.578    40361.578 
    3840    6974.6758    224.48535   -2549.4424    38089.673    38089.673 
    3850    7170.4302    230.78586   -2555.7684    33711.895    33711.895 
    3860    6694.2203    215.45868   -2540.4146    46090.999    46090.999 
    3870    6468.2617    208.18602   -2533.1331    51702.233    51702.233 
    3880    6951.1262    223.72739   -2548.6957    42082.489    42082.489 
    3890    7103.7135    228.63853   -2553.6169    31625.492    31625.492 
    3900    6596.8248    212.32393   -2537.2704    31957.421    31957.421 
    3910    6530.1665    210.17848   -2535.1412      35704.2      35704.2 
    3920    6529.1108     210.1445   -2535.1105    37928.449    37928.449 
    3930    6496.6377    209.09933   -2534.0501    33172.631    33172.631 
    3940    6796.1816    218.74038   -2543.7177    30067.226    30067.226 
    3950     6630.869    213.41967    -2538.377    34144.428    34144.428 
    3960     6510.934    209.55946   -2534.5111    36954.689    36954.689 
    3970     6682.439    215.07949   -2540.0422    27403.264    27403.264 
    3980    6765.4237    217.75041   -2542.7069    12097.631    12097.631 
    3990    6807.3356    219.09938   -2544.0672     2116.729     2116.729 
    4000    6581.6119    211.83429   -2536.7856    7903.6802    7903.6802 
    4010    6588.4272    212.05364   -2537.0076    15688.981    15688.981 
    4020     6766.127    217.77305    -2542.742    9870.7066    9870.7066 
    4030    6654.7535    214.18841   -2539.1451     6236.979     6236.979 
    4040    6523.4622    209.96269   -2534.9256    3579.2879    3579.2879 
    4050    6279.1807     202.1003   -2527.0543    958.55445    958.55445 
    4060    6193.9403    199.35677   -2524.3105   -3799.2511   -3799.2511 
    4070    6222.4117    200.27315   -2525.2393   -6368.2101   -6368.2101 
    4080    6023.3288    193.86551   -2518.8124    2095.2734    2095.2734 
    4090    6164.2115    198.39993   -2523.3673   -2307.7166   -2307.7166 
    4100    6064.2354    195.18212   -2520.1434   -2056.5711   -2056.5711 
    4110    5978.5984    192.42583   -2517.3733   -1985.8782   -1985.8782 
    4120    6294.2317    202.58473   -2527.5607   -6695.6773   -6695.6773 
    4130    6179.3579    198.88743   -2523.8366   -11790.494   -11790.494 
    4140    6481.3986    208.60884   -2533.5737   -27987.877   -27987.877 
    4150    6698.0891     215.5832   -2540.5584     -35455.1     -35455.1 
    4160    6409.1111    206.28221   -2531.2276   -20369.545   -20369.545 
    4170    6570.0592    211.46245   -2536.4178   -11211.242   -11211.242 
    4180    6885.4264    221.61279   -2546.5751   -17949.078   -17949.078 
    4190    6918.1481    222.66597   -2547.6331   -20023.398   -20023.398 
    4200    6695.5079    215.50012   -2540.4507   -8757.7179   -8757.7179 
    4210    6756.3766    217.45922   -2542.4255    3370.7228    3370.7228 
    4220    6576.6076    211.67322   -2536.6418    12453.443    12453.443 
    4230    6136.6433    197.51263   -2522.4606    10556.521    10556.521 
    4240    6187.1756    199.13905   -2524.0953   -2066.8636   -2066.8636 
    4250    6519.6858    209.84115   -2534.7999   -16194.813   -16194.813 
    4260    6725.9804     216.4809   -2541.4584   -15030.774   -15030.774 
    4270    6193.1577    199.33159    -2524.284    5513.7253    5513.7253 
    4280    6005.8409    193.30265    -2518.237    15470.795    15470.795 
    4290    6774.5252    218.04335   -2543.0226    6040.1332    6040.1332 
    4300    6903.3052    222.18824    -2547.157   -14068.329   -14068.329 
    4310    6560.0362    211.13986   -2536.0881   -26250.467   -26250.467 
    4320    6498.3717    209.15514   -2534.1181   -27675.723   -27675.723 
    4330    6320.1823    203.41997   -2528.3695   -21882.814   -21882.814 
    4340    6373.3487    205.13117   -2530.0844    -21834.18    -21834.18 
    4350    6483.9961    208.69245   -2533.6571   -27337.934   -27337.934 
    4360    6343.2917    204.16377   -2529.1131   -30997.772   -30997.772 
    4370    6458.4917    207.87157   -2532.8277   -34907.388   -34907.388 
    4380    6592.2363    212.17624   -2537.1449   -33690.616   -33690.616 
    4390    6387.8858    205.59906   -2530.5436   -23442.615   -23442.615 
    4400    6520.7982    209.87695   -2534.8307   -20873.266   -20873.266 
    4410    6658.3993    214.30575   -2539.2695   -23326.783   -23326.783 
    4420    6400.0945    205.99201   -2530.9377   -26037.662   -26037.662 
    4430    6396.6372    205.88073   -2530.8288    -26623.07    -26623.07 
    4440    6538.5512    210.44834   -2535.4082   -14746.125   -14746.125 
    4450    6394.4048    205.80888   -2530.7662    3702.0058    3702.0058 
    4460    6187.6762    199.15516   -2524.1049    11462.999    11462.999 
    4470      6370.42    205.03691   -2530.0002    59.050173    59.050173 
    4480    6548.5795    210.77111   -2535.7376   -7019.7072   -7019.7072 
    4490     6474.688    208.39286   -2533.3501   -3625.5902   -3625.5902 
    4500    6514.1027    209.66145   -2534.6232   -130.88844   -130.88844 
    4510    6535.6294     210.3543     -2535.32    6169.9369    6169.9369 
    4520    6347.4324    204.29704   -2529.2575    16363.258    16363.258 
    4530    6069.9935    195.36745   -2520.3293    20438.781    20438.781 
    4540    5888.7563    189.53419     -2514.48    24141.201    24141.201 
    4550     6275.046    201.96722   -2526.9402    27563.036    27563.036 
    4560    6437.4491     207.1943   -2532.1573    31365.599    31365.599 
    4570    6526.5905    210.06338   -2535.0237    36451.167    36451.167 
    4580    6679.4032    214.98177   -2539.9571    35121.011    35121.011 
    4590     6352.489    204.45979   -2529.4182    36609.149    36609.149 
    4600     6262.124    201.55132   -2526.4984    36602.033    36602.033 
    4610    6787.2934    218.45431   -2543.4351    26468.915    26468.915 
    4620    6764.1648    217.70989    -2542.679    22398.138    22398.138 
    4630    6538.1714    210.43612   -2535.3912    37106.557    37106.557 
    4640    6749.1775    217.22752   -2542.1979    39456.904    39456.904 
    4650    6826.7922     219.7256   -2544.6988    28863.957    28863.957 
    4660    6698.1729    215.58589   -2540.5368    14978.681    14978.681 
    4670    6919.4382    222.70749   -2547.6871    11061.613    11061.613 
    4680    6715.4785    216.14289   -2541.1028    22955.432    22955.432 
    4690    6709.6284     215.9546   -2540.9174    13532.402    13532.402 
    4700    7002.7405    225.38864   -2550.3599    736.31828    736.31828 
    4710    7132.8668    229.57685   -2554.5524    13086.067    13086.067 
    4720    6928.5599    223.00108   -2547.9736     29612.23     29612.23 
    4730    6585.8472     211.9706   -2536.9331    21826.601    21826.601 
    4740    6523.2013     209.9543   -2534.9071    15851.356    15851.356 
    4750    6946.7947    223.58798   -2548.5601    24389.785    24389.785 
    4760    7124.5284    229.30848   -2554.2826    21369.924    21369.924 
    4770    6881.3315    221.48099   -2546.4485    16067.761    16067.761 
    4780    6610.1967    212.75431   -2537.7113    14132.871    14132.871 
    4790    6672.6192    214.76343   -2539.7336    15342.223    15342.223 
    4800    6618.8462     213.0327   -2537.9949    14724.368    14724.368 
    4810    6538.6125    210.45032   -2535.4106     21978.86     21978.86 
    4820    6613.6859    212.86661   -2537.8311    24226.198    24226.198 
    4830    6570.9586     211.4914    -2536.453    18421.125    18421.125 
    4840    6501.7652    209.26436   -2534.2167    13037.468    13037.468 
    4850    6684.2229     215.1369   -2540.1079    7483.8608    7483.8608 
    4860     6515.711    209.71322   -2534.6762    12599.609    12599.609 
    4870    6404.1871    206.12373    -2531.069    18838.536    18838.536 
    4880    6860.2511     220.8025   -2545.7858    23464.114    23464.114 
    4890    6684.9006    215.15871   -2540.1198    36152.599    36152.599 
    4900    6576.7595    211.67811   -2536.6356    36215.177    36215.177 
    4910    6842.3438    220.22615   -2545.1932    24606.759    24606.759 
    4920    6978.3322    224.60304   -2549.5743     24997.19     24997.19 
    4930    6816.2696    219.38693   -2544.3463    31970.465    31970.465 
    4940    6781.2948    218.26124   -2543.2214    39524.362    39524.362 
    4950    6792.4902    218.62157   -2543.5927    34087.869    34087.869 
    4960    6375.2756    205.19319   -2530.1463    30734.663    30734.663 
    4970    6278.2218    202.06944   -2527.0169    27968.457    27968.457 
    4980    6590.5349    212.12148   -2537.0918    16024.415    16024.415 
    4990    6424.4857    206.77706   -2531.7345    9810.8266    9810.8266 
    5000    6199.1705    199.52511   -2524.4623    4300.5694    4300.5694 
    5010    6577.5766    211.70441   -2536.6595   -2436.0619   -2436.0619 
    5020    6817.6963    219.43285   -2544.4094   -2485.6846   -2485.6846 
    5030    6269.3185    201.78288   -2526.7293   -610.47719   -610.47719 
    5040    5994.6291    192.94179   -2517.8852   -38.497975   -38.497975 
    5050     6234.924    200.67587   -2525.6457    -2886.274    -2886.274 
    5060     6146.805    197.83969   -2522.7951    5398.5911    5398.5911 
    5070    6129.2188    197.27366   -2522.2234    11943.005    11943.005 
    5080     6498.509    209.15955   -2534.1213    9998.4718    9998.4718 
    5090    6618.5879    213.02439   -2537.9927    5981.9534    5981.9534 
    5100    6290.3545    202.45994   -2527.4013    8031.8894    8031.8894 
    5110     6365.358    204.87399   -2529.8395    9346.2632    9346.2632 
    5120    6218.5521    200.14892   -2525.1055    24168.325    24168.325 
    5130    6073.6938    195.48655   -2520.4362    35940.105    35940.105 
    5140    6305.2923    202.94073   -2527.9033    30885.137    30885.137 
    5150    6309.7711    203.08488   -2528.0493     25153.49     25153.49 
    5160    6120.7316     197.0005   -2521.9429     16402.51     16402.51 
    5170    6382.6266    205.42979   -2530.3864    1862.7448    1862.7448 
    5180    6724.0228    216.41789   -2541.3776    -10328.68    -10328.68 
    5190     6834.433    219.97153   -2544.9445   -15497.757   -15497.757 
    5200    6408.3914    206.25905   -2531.2047   -7305.8224   -7305.8224 
    5210    6342.2061    204.12883   -2529.0854    764.01456    764.01456 
    5220    6441.5507    207.32631   -2532.2818    5927.9627    5927.9627 
    5230    6565.3891    211.31214   -2536.2728     1784.891     1784.891 
    5240    6540.3571    210.50647   -2535.4697   -6986.9118   -6986.9118 
    5250    6386.7742    205.56329   -2530.5224   -7555.2377   -7555.2377 
    5260    6335.5564     203.9148   -2528.8756    8737.5177    8737.5177 
    5270     6298.885     202.7345    -2527.698    26434.599    26434.599 
    5280    6220.3471     200.2067   -2525.1627     32586.24     32586.24 
    5290    6353.8632    204.50402   -2529.4682    19607.421    19607.421 
    5300    6343.5337    204.17156   -2529.1317    10877.086    10877.086 
    5310     6314.234    203.22852   -2528.1767    16169.185    16169.185 
    5320    6703.9495    215.77182   -2540.7401    13267.194    13267.194 
    5330     6767.977    217.83259   -2542.7956    9622.2313    9622.2313 
    5340    6560.7254    211.16204   -2536.1145    16294.237    16294.237 
    5350     6619.989    213.06948   -2538.0271    13344.619    13344.619 
    5360    6860.7145    220.81742   -2545.7789    1630.8694    1630.8694 
    5370    6894.2093    221.89548   -2546.8646   -7350.7392   -7350.7392 
    5380    6613.3908    212.85712   -2537.7996   -8523.2133   -8523.2133 
    5390    6711.3282    216.00931   -2540.9803   -15859.131   -15859.131 
    5400     6515.451    209.70485   -2534.6565   -12544.747   -12544.747 
    5410    6441.5868    207.32747   -2532.2881   -1228.9037   -1228.9037 
    5420     6279.123    202.09845   -2527.0571    5689.6577    5689.6577 
    5430    6113.3392    196.76257    -2521.713    2842.6604    2842.6604 
    5440    6184.7126    199.05978     -2524.02    -12050.96    -12050.96 
    5450    6201.6471    199.60482   -2524.5598   -31422.116   -31422.116 
    5460     6287.692    202.37425   -2527.3313   -46169.253   -46169.253 
    5470    6373.6322     205.1403     -2530.09   -46410.776   -46410.776 
    5480    6577.7024    211.70846   -2536.6604   -43803.318   -43803.318 
    5490    6722.0747    216.35519   -2541.3217    -37847.23    -37847.23 
    5500    6474.7918     208.3962   -2533.3491   -27619.342   -27619.342 
    5510    6390.1596    205.67225    -2530.621   -25905.884   -25905.884 
    5520    6713.9643    216.09415   -2541.0587   -31705.835   -31705.835 
    5530    6839.4911    220.13433   -2545.1013    -29792.97    -29792.97 
    5540    6803.1048    218.96321   -2543.9195   -20736.985   -20736.985 
    5550    6924.2847    222.86348   -2547.8385   -5428.0258   -5428.0258 
    5560    6590.8028     212.1301   -2537.0853    8396.6015    8396.6015 
    5570    6463.6787    208.03852    -2532.994    6465.1132    6465.1132 
    5580    6550.1006    210.82007   -2535.7826   -1051.0909   -1051.0909 
    5590    6559.1572    211.11157   -2536.0692    8280.8081    8280.8081 
    5600    6676.5557    214.89013   -2539.8535    18994.209    18994.209 
    5610    6714.9492    216.12585   -2541.0891    23324.237    23324.237 
    5620    6703.9376    215.77143   -2540.7338    23409.906    23409.906 
    5630      6709.98    215.96591   -2540.9309    21403.222    21403.222 
    5640     6587.383    212.02003   -2536.9784    23761.466    23761.466 
    5650    6679.5168    214.98543   -2539.9392    13823.368    13823.368 
    5660    6992.0519    225.04462   -2550.0153   -6829.0852   -6829.0852 
    5670    6783.9871    218.34789   -2543.3107   -12352.271   -12352.271 
    5680    6327.3777    203.65156   -2528.6045   -9954.9993   -9954.9993 
    5690    6208.9645    199.84034   -2524.7848   -10460.426   -10460.426 
    5700    6621.8406    213.12908   -2538.0954   -3114.3008   -3114.3008 
    5710    6691.7551    215.37933   -2540.3515     10318.41     10318.41 
    5720    6315.6657     203.2746   -2528.2199    18192.158    18192.158 
    5730    6278.0923    202.06527   -2527.0366    22015.591    22015.591 
    5740    5987.3253    192.70671   -2517.6518    29267.043    29267.043 
    5750    6121.4421    197.02337    -2521.976    24091.865    24091.865 
    5760    6462.2215    207.99161   -2532.9587    12373.778    12373.778 
    5770    6452.2796    207.67163   -2532.6277    9399.2135    9399.2135 
    5780    6403.2118    206.09234   -2531.0458    11976.623    11976.623 
    5790    6529.5761    210.15947   -2535.1178    4466.4329    4466.4329 
    5800    6665.6517    214.53917   -2539.4942    -6947.562    -6947.562 
    5810      6847.97    220.40723   -2545.3723    2045.8055    2045.8055 
    5820    6676.4081    214.88538   -2539.8493    16668.084    16668.084 
    5830    6282.8901    202.21969   -2527.1664    15535.753    15535.753 
    5840    6384.6083    205.49357   -2530.4517     2356.538     2356.538 
    5850    6638.4795    213.66462   -2538.6233   -7331.5069   -7331.5069 
    5860    6865.3542    220.96675   -2545.9267    -7571.032    -7571.032 
    5870    7038.2409    226.53125   -2551.4851   -16698.493   -16698.493 
    5880    7100.8998    228.54797   -2553.5336   -24933.713   -24933.713 
    5890     6265.335    201.65467   -2526.5988   -11827.412   -11827.412 
    5900    5991.0097     192.8253   -2517.7665    1130.0691    1130.0691 
    5910    6567.5808    211.38268    -2536.358    547.59435    547.59435 
    5920    6700.6322    215.66505   -2540.6292   -2382.2896   -2382.2896 
    5930    6458.9654    207.88681   -2532.8436   -2783.7042   -2783.7042 
    5940    6340.6322    204.07817   -2529.0254   -7228.9278   -7228.9278 
    5950    6508.1078     209.4685   -2534.4407   -9144.7763   -9144.7763 
    5960    6296.6186    202.66156   -2527.6041   -7821.1331   -7821.1331 
    5970     6428.636    206.91064    -2531.869   -1349.9581   -1349.9581 
    5980    6584.6864    211.93324   -2536.8922    2607.0252    2607.0252 
    5990    6710.9208     215.9962   -2540.9724   -7217.0036   -7217.0036 
    6000    6502.3558    209.28337   -2534.2368   -13794.768   -13794.768 
    6010    6534.6639    210.32323   -2535.2782   -13641.309   -13641.309 
    6020    6816.8136    219.40444   -2544.3806    -9925.001    -9925.001 
    6030    6551.1686    210.85445   -2535.8194    3104.7267    3104.7267 
    6040    6231.6389    200.57013   -2525.5104    4462.7221    4462.7221 
    6050    6523.2547    209.95601   -2534.9292   -713.02183   -713.02183 
    6060    6429.7969      206.948   -2531.8994   -1147.1838   -1147.1838 
    6070    6649.3246    214.01367   -2538.9656   -8830.9399   -8830.9399 
    6080    7174.1474     230.9055   -2555.8871   -19389.694   -19389.694 
    6090    6834.9792    219.98911   -2544.9559   -4897.1651   -4897.1651 
    6100    6302.8732    202.86287   -2527.8045    13542.722    13542.722 
    6110    6471.9491     208.3047   -2533.2647    19108.912    19108.912 
    6120    6723.3534    216.39635   -2541.3652    24055.259    24055.259 
    6130    6602.3108     212.5005   -2537.4738    32183.198    32183.198 
    6140     6236.657    200.73165    -2525.671    38116.308    38116.308 
    6150    6703.7002    215.76379   -2540.7373    20874.902    20874.902 
    6160    6845.3218    220.32199   -2545.3042    10331.935    10331.935 
    6170    6172.1193    198.65445   -2523.5997    11809.778    11809.778 
    6180    6194.5037    199.37491   -2524.3234   -551.57709   -551.57709 
    6190    6714.2186    216.10234   -2541.0876   -8840.2241   -8840.2241 
    6200    6432.4987    207.03496   -2531.9814    3202.7391    3202.7391 
    6210    6559.5578    211.12446    -2536.092    1305.6491    1305.6491 
    6220    6617.0368    212.97446   -2537.9304    -12343.66    -12343.66 
    6230    6702.0999    215.71229   -2540.6655   -15739.348   -15739.348 
    6240    6832.7519    219.91742   -2544.8905   -20969.707   -20969.707 
    6250    6323.0367    203.51184   -2528.4586    -14463.24    -14463.24 
    6260    6122.3924    197.05395   -2522.0008   -6255.1609   -6255.1609 
    6270    6382.5105    205.42605   -2530.3928   -2594.6192   -2594.6192 
    6280    6410.8335    206.33765   -2531.2973   -297.21112   -297.21112 
    6290    6325.9628    203.60602   -2528.5661   -732.10327   -732.10327 
    6300    6309.3558    203.07151   -2528.0321   -8400.3136   -8400.3136 
    6310     6269.597    201.79185   -2526.7515   -13312.857   -13312.857 
    6320    6305.3622    202.94298    -2527.894   -4195.1196   -4195.1196 
    6330    6598.2088    212.36847   -2537.3344    2420.2475    2420.2475 
    6340      6655.04    214.19763   -2539.1594    4129.1678    4129.1678 
    6350    6529.3708    210.15287   -2535.1112    8326.6173    8326.6173 
    6360    6447.3638    207.51341   -2532.4679    12840.868    12840.868 
    6370    6619.7891    213.06305   -2538.0246    9383.1797    9383.1797 
    6380    6793.3257    218.64846   -2543.6148    220.40032    220.40032 
    6390    6701.9846    215.70858   -2540.6676    4977.4247    4977.4247 
    6400     6591.141    212.14099    -2537.097    13309.474    13309.474 
    6410    6484.1978    208.69894   -2533.6681    17396.322    17396.322 
    6420    6093.0384    196.10917   -2521.0557    22593.065    22593.065 
    6430    6188.3312    199.17624   -2524.1305    27867.304    27867.304 
    6440     6684.426    215.14344   -2540.1178    25112.987    25112.987 
    6450    6807.6236    219.10865   -2544.0787    24550.587    24550.587 
    6460    6663.5138    214.47036   -2539.4289    23261.445    23261.445 
    6470    6818.3981    219.45543    -2544.417    21613.995    21613.995 
    6480    7128.8059    229.44615   -2554.4206     16363.83     16363.83 
    6490    7059.6815    227.22133   -2552.1957    3172.8783    3172.8783 
    6500    6613.1124    212.84815   -2537.8052    7265.6844    7265.6844 
    6510    6403.2601     206.0939   -2531.0562    23485.119    23485.119 
    6520    6446.7084    207.49231   -2532.4518    31634.445    31634.445 
    6530    6622.6691    213.15575   -2538.1343    21709.875    21709.875 
    6540    6356.4492    204.58725   -2529.5455     16434.54     16434.54 
    6550    6235.8676    200.70624   -2525.6582    31749.156    31749.156 
    6560    6605.8245    212.61359   -2537.5878    41551.571    41551.571 
    6570    6637.3459    213.62813   -2538.5937    36854.719    36854.719 
    6580    6627.8074    213.32113   -2538.2743    26416.204    26416.204 
    6590     6849.775    220.46532   -2545.4468     8970.572     8970.572 
    6600    6454.2377    207.73465   -2532.6884    8180.0851    8180.0851 
    6610    6305.0365    202.93249   -2527.8992    24519.803    24519.803 
    6620     6405.471    206.16506   -2531.1123    36463.227    36463.227 
    6630    7034.7778    226.41978   -2551.4083    28968.284    28968.284 
    6640    6889.5235    221.74466   -2546.7211     24598.98     24598.98 
    6650    6426.4725    206.84101   -2531.7867    25334.746    25334.746 
    6660    6707.7511    215.89418   -2540.8722    11601.151    11601.151 
    6670     6658.735    214.31655   -2539.2816    9697.2157    9697.2157 
    6680    6505.3604    209.38007   -2534.3367    17837.173    17837.173 
    6690    6641.2557    213.75397   -2538.7186    25565.899    25565.899 
    6700     6786.408    218.42581   -2543.3985    26839.495    26839.495 
    6710    6558.0635    211.07636   -2536.0436    27479.921    27479.921 
    6720    6237.4467    200.75706   -2525.7095    20697.697    20697.697 
    6730    6383.6031    205.46122   -2530.4259    8386.9953    8386.9953 
    6740     6512.886    209.62229   -2534.5897     1237.719     1237.719 
    6750    6493.8174    209.00855   -2533.9621    10073.269    10073.269 
    6760    6670.5584     214.6971   -2539.6708    27682.035    27682.035 
    6770    6491.8508    208.94526   -2533.9011     41577.41     41577.41 
    6780    6462.8048    208.01039   -2532.9704    38460.064    38460.064 
    6790    6532.8094    210.26354   -2535.2269    29533.263    29533.263 
    6800    6560.1012    211.14195   -2536.0984    24091.512    24091.512 
    6810    6785.8974    218.40938   -2543.3743    19115.033    19115.033 
    6820    6864.7456    220.94716   -2545.9183    15105.981    15105.981 
    6830    6656.4055    214.24158   -2539.1961     21468.67     21468.67 
    6840    6720.8195    216.31479   -2541.2809      23727.2      23727.2 
    6850    6673.5647    214.79386   -2539.7534    24156.277    24156.277 
    6860    6701.1239    215.68087   -2540.6403    21066.163    21066.163 
    6870    6835.9295     220.0197   -2544.9804    12621.392    12621.392 
    6880    6901.9811    222.14562   -2547.1096     11073.93     11073.93 
    6890    6797.9579    218.79755   -2543.7665    15945.502    15945.502 
    6900    6519.5818     209.8378   -2534.7907    14010.587    14010.587 
    6910    6707.2599    215.87836   -2540.8439    6802.4283    6802.4283 
    6920    6725.5121    216.46583   -2541.4434    15077.247    15077.247 
    6930    6274.4271    201.94731   -2526.8951     33982.03     33982.03 
    6940    6327.3718    203.65137   -2528.6133    37011.157    37011.157 
    6950    6505.6617    209.38977   -2534.3548    36853.427    36853.427 
    6960    6614.4367    212.89078   -2537.8503    39795.057    39795.057 
    6970    6676.1993    214.87866   -2539.8586    33845.295    33845.295 
    6980    6156.4711     198.1508   -2523.1005    43328.136    43328.136 
    6990    5987.3884    192.70874   -2517.6615     49870.23     49870.23 
    7000    6218.7008    200.15371   -2525.1275    41408.069    41408.069 
    7010    6150.9082    197.97175    -2522.929    34541.501    34541.501 
    7020    6222.0156     200.2604   -2525.2165    28446.973    28446.973 
    7030    6482.6225    208.64824   -2533.6163    19726.678    19726.678 
    7040    6557.9975    211.07424    -2536.035    18963.336    18963.336 
    7050    6572.2904    211.53427   -2536.5004    22755.761    22755.761 
    7060    6381.3024    205.38717   -2530.3458    28565.102    28565.102 
    7070    6354.5012    204.52455   -2529.4853    30943.708    30943.708 
    7080    6398.9088    205.95385   -2530.9227    37493.098    37493.098 
    7090     6264.501    201.62783   -2526.5805    42856.524    42856.524 
    7100    6541.6383    210.54771   -2535.5174    39754.038    39754.038 
    7110    6661.2366    214.39707   -2539.3728     32954.43     32954.43 
    7120    6480.5445    208.58135   -2533.5356    23483.131    23483.131 
    7130    6738.0768    216.87023    -2541.826    19313.271    19313.271 
    7140    7315.5871    235.45785   -2560.4322    20395.829    20395.829 
    7150    7414.2439     238.6332    -2563.617    20588.174    20588.174 
    7160    6698.4915    215.59615   -2540.5543    30841.005    30841.005 
    7170    6323.7068    203.53341   -2528.4844    43097.419    43097.419 
    7180    6674.6483    214.82874   -2539.7976    48133.112    48133.112 
    7190    6913.2052    222.50687   -2547.4835     40441.94     40441.94 
    7200    6759.0632    217.54569    -2542.514    31231.891    31231.891 
    7210    6573.0098    211.55742   -2536.5188    26474.084    26474.084 
    7220     6526.327     210.0549   -2535.0128    19712.985    19712.985 
    7230    6599.4628    212.40883   -2537.3736    16361.353    16361.353 
    7240    6675.8524    214.86749   -2539.8292    12703.536    12703.536 
    7250    6762.8702    217.66823   -2542.6346    2535.5044    2535.5044 
    7260    6817.3688    219.42231   -2544.3798     3039.742     3039.742 
    7270    7030.8434    226.29315   -2551.2664    15482.937    15482.937 
    7280    6869.7444    221.10805   -2546.0881    30762.525    30762.525 
    7290    6443.5544     207.3908   -2532.3332    36400.033    36400.033 
    7300    6895.5673    221.93919   -2546.9132    32049.396    32049.396 
    7310    7225.0921     232.5452   -2557.5285    30857.033    30857.033 
    7320    6889.3793    221.74002   -2546.7114    27556.766    27556.766 
    7330     6487.459     208.8039   -2533.7558    26419.376    26419.376 
    7340     6609.375    212.72786   -2537.7019    26756.218    26756.218 
    7350    6620.7472    213.09389   -2538.0599    31332.195    31332.195 
    7360    6517.6186    209.77461   -2534.7421    46112.415    46112.415 
    7370    6573.8255    211.58367   -2536.5476    55129.833    55129.833 
    7380    6881.2488    221.47833   -2546.4522    45375.709    45375.709 
    7390    6937.1631    223.27798   -2548.2476    34925.357    34925.357 
    7400    6771.6503    217.95082   -2542.9191     39625.76     39625.76 
    7410    6636.3343    213.59557   -2538.5558    35482.509    35482.509 
    7420    6637.0056    213.61718   -2538.5945    37848.348    37848.348 
    7430    6391.2929    205.70872   -2530.6661    41096.825    41096.825 
    7440    6558.4395    211.08846   -2536.0503    38890.572    38890.572 
    7450    6824.0603    219.63768   -2544.6146    36630.409    36630.409 
    7460    6622.2094    213.14095   -2538.1024    28034.615    28034.615 
    7470    6476.4732    208.45031   -2533.4195    17808.231    17808.231 
    7480    6263.8402    201.60656   -2526.5651    10366.926    10366.926 
    7490    6480.8209    208.59025   -2533.5331   -2393.4655   -2393.4655 
    7500    7360.8426    236.91443    -2561.914   -8463.6769   -8463.6769 
    7510    6991.4351    225.02476   -2549.9944    6211.8035    6211.8035 
    7520    6404.1112    206.12129   -2531.0644    18147.327    18147.327 
    7530    6601.9953    212.49034   -2537.4578    4545.4992    4545.4992 
    7540    6634.0861    213.52321   -2538.4954   -1370.1945   -1370.1945 
    7550    6227.0243    200.42161   -2525.3773    7413.0848    7413.0848 
    7560    6154.6978    198.09373   -2523.0423    9344.5527    9344.5527 
    7570    6737.3416    216.84657   -2541.8196    11538.214    11538.214 
    7580    6937.7557    223.29705   -2548.2755     17757.63     17757.63 
    7590    6499.7953    209.20096   -2534.1565    29205.715    29205.715 
    7600    6241.6584    200.89262   -2525.8469    33158.046    33158.046 
    7610    6387.2638    205.57904   -2530.5404    17812.689    17812.689 
    7620    6613.6926    212.86683   -2537.8391   -1832.4242   -1832.4242 
    7630    6463.0609    208.01863   -2532.9759   -1786.7298   -1786.7298 
    7640    6400.8909    206.01764   -2530.9886    11948.863    11948.863 
    7650    6258.3355    201.42939   -2526.3824     17465.95     17465.95 
    7660    6487.8132     208.8153   -2533.7774     11913.71     11913.71 
    7670     6768.366    217.84511   -2542.8145    7513.1786    7513.1786 
    7680    6683.8959    215.12638   -2540.0854    2731.3343    2731.3343 
    7690    6549.0826    210.78731   -2535.7436    2023.6191    2023.6191 
    7700    6629.7661    213.38417   -2538.3454    340.15096    340.15096 
    7710    6692.1108    215.39078   -2540.3564   -2911.8274   -2911.8274 
    7720    6503.5676    209.32237   -2534.2813    107.77385    107.77385 
    7730    6328.9594    203.70247   -2528.6558    6445.6517    6445.6517 
    7740    6302.6137    202.85451   -2527.8131    10785.957    10785.957 
    7750    6341.2483      204.098   -2529.0545    14700.273    14700.273 
    7760    6390.9874    205.69889   -2530.6616     18560.42     18560.42 
    7770     6274.055    201.93533   -2526.8916    16613.233    16613.233 
    7780    6258.7987     201.4443    -2526.397     8568.965     8568.965 
    7790    6482.3062    208.63806   -2533.6013    2129.9102    2129.9102 
    7800    6501.1735    209.24531   -2534.2099    310.45451    310.45451 
    7810    6308.5768    203.04644   -2527.9942   -102.77762   -102.77762 
    7820    6491.9874    208.94965    -2533.904   -6358.1216   -6358.1216 
    7830    6765.1062    217.74019    -2542.704   -670.67604   -670.67604 
    7840    6654.4431    214.17841   -2539.1413    10315.109    10315.109 
    7850    6364.3299     204.8409   -2529.7884    24963.873    24963.873 
    7860    6507.1117    209.43644   -2534.3955    36842.023    36842.023 
    7870    6785.5473    218.39811   -2543.3637    35231.542    35231.542 
    7880      6784.63    218.36858   -2543.3355    31706.101    31706.101 
    7890    6539.7668    210.48747    -2535.439    32932.981    32932.981 
    7900    6640.7998     213.7393   -2538.6904    26096.651    26096.651 
    7910    7115.4294    229.01562   -2553.9819    11078.913    11078.913 
    7920    7319.0568    235.56952   -2560.5376    4289.4037    4289.4037 
    7930    7130.5675    229.50285    -2554.467    17744.889    17744.889 
    7940    6848.4436    220.42247   -2545.3798    35961.092    35961.092 
    7950    6686.1609    215.19928   -2540.1619    33671.545    33671.545 
    7960    6549.7127    210.80758   -2535.7598     21310.77     21310.77 
    7970    6742.8955    217.02532   -2541.9899      5807.99      5807.99 
    7980    6876.7998    221.33514   -2546.2989   -3719.5273   -3719.5273 
    7990    6831.1825    219.86691   -2544.8225   -5746.9802   -5746.9802 
    8000    6953.9097    223.81698    -2548.775   -6073.6189   -6073.6189 
    8010    7029.6578    226.25499   -2551.2316   -2133.8041   -2133.8041 
    8020    6515.3703    209.70225   -2534.6493    9280.6261    9280.6261 
    8030    6476.9001    208.46406   -2533.4106    11131.008    11131.008 
    8040    6978.8652    224.62019   -2549.6028    5846.4308    5846.4308 
    8050    6733.3196    216.71712   -2541.6756    18702.897    18702.897 
    8060    6522.2682    209.92426   -2534.8795     28759.95     28759.95 
    8070    6668.5097    214.63116   -2539.5934    24449.114    24449.114 
    8080    6822.4897    219.58713   -2544.5578    20135.588    20135.588 
    8090    6675.1455    214.84474   -2539.8086    12523.893    12523.893 
    8100    6528.9473    210.13924   -2535.0964      13987.6      13987.6 
    8110    6778.3609    218.16681   -2543.1304    17362.997    17362.997 
    8120    7055.6037    227.09008   -2552.0649      11711.3      11711.3 
    8130    6852.8422    220.56405   -2545.5275     14515.75     14515.75 
    8140    6598.6324     212.3821   -2537.3308    19340.387    19340.387 
    8150    6835.0006     219.9898   -2544.9603    7688.8513    7688.8513 
    8160    6879.4427     221.4202   -2546.3952   -2550.5838   -2550.5838 
    8170    6503.7652    209.32873   -2534.2838   -3601.0046   -3601.0046 
    8180    6504.5915    209.35533   -2534.3147    2629.0368    2629.0368 
    8190     6781.621    218.27174   -2543.2384    9121.5593    9121.5593 
    8200    6874.2164    221.25199   -2546.2209    5543.0785    5543.0785 
    8210    6655.3177    214.20656    -2539.165   -2133.1467   -2133.1467 
    8220    6496.8731     209.1069   -2534.0609   -12274.798   -12274.798 
    8230    6625.2667    213.23935   -2538.1969   -21650.149   -21650.149 
    8240    6835.8234    220.01628   -2544.9803   -13535.683   -13535.683 
    8250    6849.4269    220.45412   -2545.4138    2294.3432    2294.3432 
    8260    6797.7331    218.79032   -2543.7453    11353.948    11353.948 
    8270    6850.2577    220.48086   -2545.4467    11585.654    11585.654 
    8280    6682.6525    215.08636   -2540.0444     11024.05     11024.05 
    8290    6571.0755    211.49516   -2536.4552    7219.5735    7219.5735 
    8300    6528.4889    210.12448   -2535.0845    5629.5934    5629.5934 
    8310    6454.1946    207.73326   -2532.6945    11021.434    11021.434 
    8320     6402.498    206.06937   -2531.0194    18930.718    18930.718 
    8330    6729.6479    216.59894   -2541.5646    16124.084    16124.084 
    8340    6823.8783    219.63182   -2544.6075    25410.671    25410.671 
    8350    6275.2409     201.9735   -2526.9239    38419.703    38419.703 
    8360    6089.2456    195.98709    -2520.937    36021.371    36021.371 
    8370    6447.8404    207.52875   -2532.4927    23900.845    23900.845 
    8380    6770.3884    217.91021   -2542.8732    6745.9994    6745.9994 
    8390     6911.163    222.44115    -2547.407    1239.5699    1239.5699 
    8400    6907.3601    222.31875   -2547.2737   -992.88779   -992.88779 
    8410    7000.3325    225.31113   -2550.2863    1279.7957    1279.7957 
    8420    6691.1639     215.3603   -2540.3079    12036.229    12036.229 
    8430     6767.569    217.81946   -2542.7762    20285.299    20285.299 
    8440    7227.8241    232.63313   -2557.6006    19264.513    19264.513 
    8450    7476.7329    240.64445   -2565.6192    16337.167    16337.167 
    8460    7116.4869    229.04965   -2554.0154    22047.126    22047.126 
    8470    6686.0987    215.19727   -2540.1534    26647.586    26647.586 
    8480    6636.5411    213.60223   -2538.5542    30421.693    30421.693 
    8490     6979.927    224.65437    -2549.627    28478.307    28478.307 
    8500    6863.7478    220.91505    -2545.896    37725.359    37725.359 
    8510    6156.0999    198.13885   -2523.0826     41455.04     41455.04 
    8520    6317.6431    203.33825   -2528.2983    34369.096    34369.096 
    8530    6857.6209    220.71785   -2545.7015     24439.72     24439.72 
    8540    6825.4883    219.68364   -2544.6489    19018.914    19018.914 
    8550    6697.4744    215.56341   -2540.5292     19199.41     19199.41 
    8560     6620.361    213.08146   -2538.0458    25915.635    25915.635 
    8570    6591.7105    212.15932     -2537.13    16365.406    16365.406 
    8580    6410.2072    206.31749   -2531.2676    568.86392    568.86392 
    8590    6511.8295    209.58829   -2534.5537   -738.04985   -738.04985 
    8600     6413.432    206.42129   -2531.3808    14507.543    14507.543 
    8610    6333.4897    203.84828   -2528.7968    27125.725    27125.725 
    8620    6600.4372    212.44019    -2537.413    22132.507    22132.507 
    8630    6451.1838    207.63636   -2532.5904    21127.332    21127.332 
    8640    6395.6165    205.84788   -2530.8111    14420.255    14420.255 
    8650    6255.6479    201.34288   -2526.3009    8418.4205    8418.4205 
    8660    6127.3266    197.21276   -2522.1694    12290.183    12290.183 
    8670     6171.044    198.61984   -2523.5758    20596.134    20596.134 
    8680    6266.5881      201.695   -2526.6549    26786.559    26786.559 
    8690    6255.9491    201.35258   -2526.3131    31266.102    31266.102 
    8700    6201.7197    199.60716   -2524.5605    35866.627    35866.627 
    8710    6420.8809    206.66103   -2531.6183    28326.116    28326.116 
    8720    6751.9358    217.31629   -2542.2836    18494.572    18494.572 
    8730     6724.014    216.41761   -2541.3799    19739.844    19739.844 
    8740    6638.4422    213.66341   -2538.6103    26180.311    26180.311 
    8750    6900.7067     222.1046    -2547.082    27134.623    27134.623 
    8760    6663.6909    214.47606   -2539.4362    25661.693    25661.693 
    8770    6502.3587    209.28346   -2534.2438    28379.927    28379.927 
    8780    6548.6672    210.77394   -2535.7408     29133.52     29133.52 
    8790    6605.3658    212.59882   -2537.5544    30610.277    30610.277 
    8800    6961.1595    224.05032   -2549.0246    32683.583    32683.583 
    8810    6953.4127    223.80098   -2548.7741    52512.874    52512.874 
    8820    6638.7899     213.6746   -2538.6264    69770.443    69770.443 
    8830    6846.2752    220.35268   -2545.3189     70534.41     70534.41 
    8840    7127.4194    229.40153   -2554.3773    56966.092    56966.092 
    8850    7064.6815    227.38226   -2552.3407    51558.993    51558.993 
    8860    7077.4682    227.79381   -2552.7583     46469.53     46469.53 
    8870    7055.9499    227.10123   -2552.0721    48115.597    48115.597 
    8880    6710.4203    215.98009   -2540.9481    55674.446    55674.446 
    8890    6388.1303    205.60693   -2530.5516    61564.111    61564.111 
    8900    6792.9068    218.63498   -2543.6117    51396.276    51396.276 
    8910     6925.833    222.91331   -2547.8841    49534.003    49534.003 
    8920    6777.9883    218.15481   -2543.1227    43063.648    43063.648 
    8930    6605.2267    212.59435   -2537.5525    32663.462    32663.462 
    8940    6660.2626    214.36572   -2539.3323    27246.721    27246.721 
    8950    6642.4102    213.79113   -2538.7509    23544.735    23544.735 
    8960    6689.1049    215.29403   -2540.2561    22006.268    22006.268 
    8970    6780.3147    218.22969   -2543.1898    15643.791    15643.791 
    8980    6834.8146    219.98381   -2544.9465    14396.738    14396.738 
    8990    6843.8327    220.27407   -2545.2346     11495.14     11495.14 
    9000    6821.6632    219.56052   -2544.5265    5688.8392    5688.8392 
    9010    6597.0011     212.3296   -2537.2886   -3577.9875   -3577.9875 
    9020    6435.4327     207.1294   -2532.0848   -11177.343   -11177.343 
    9030     6539.647    210.48362   -2535.4474   -18070.054   -18070.054 
    9040    6642.1964    213.78425   -2538.7482    -17280.32    -17280.32 
    9050    6613.6147    212.86432     -2537.83   -13026.084   -13026.084 
    9060     6408.944    206.27684   -2531.2442   -5617.1369   -5617.1369 
    9070    6139.5097    197.60488   -2522.5563    3000.1253    3000.1253 
    9080     6287.054    202.35371   -2527.3192   -4883.6327   -4883.6327 
    9090    6331.0151    203.76863   -2528.7355   -14087.423   -14087.423 
    9100    6174.6506    198.73592   -2523.6892   -8756.2688   -8756.2688 
    9110    6393.2505    205.77173   -2530.7318   -179.35205   -179.35205 
    9120    6718.7424    216.24794   -2541.2294    153.63245    153.63245 
    9130    6377.5976    205.26793   -2530.2278    1587.4328    1587.4328 
    9140    6209.8287    199.86816   -2524.8138    2804.0229    2804.0229 
    9150    6671.4813     214.7268   -2539.7018   -8803.6314   -8803.6314 
    9160     6710.419    215.98004   -2540.9436   -17125.353   -17125.353 
    9170    6507.5371    209.45013   -2534.4121   -12676.695   -12676.695 
    9180    6251.6448    201.21404   -2526.1656   -4795.4499   -4795.4499 
    9190    6288.4266    202.39789   -2527.3545    8053.8092    8053.8092 
    9200    6416.2457    206.51185   -2531.4786    16231.465    16231.465 
    9210     6299.599    202.75748   -2527.7097    19406.427    19406.427 
    9220    6370.6026    205.04279   -2529.9977    16801.498    16801.498 
    9230    6479.8094     208.5577   -2533.5209    6195.6354    6195.6354 
    9240     6423.568    206.74752   -2531.7035    4271.0554    4271.0554 
    9250    6345.6625    204.24007   -2529.2044    14214.151    14214.151 
    9260    6153.9854     198.0708   -2523.0166    26177.107    26177.107 
    9270    6422.9653    206.72812   -2531.6959    30900.822    30900.822 
    9280    6492.6608    208.97133   -2533.9402    31525.123    31525.123 
    9290    6314.3122    203.23104   -2528.1818    23276.393    23276.393 
    9300    6509.9283    209.52709   -2534.4825   -252.33627   -252.33627 
    9310    6882.3019    221.51223   -2546.4822   -17875.524   -17875.524 
    9320    6899.8795    222.07798   -2547.0474   -10676.069   -10676.069 
    9330    6484.7838     208.7178   -2533.6759    7512.3124    7512.3124 
    9340    6188.6268    199.18576   -2524.1398    19223.456    19223.456 
    9350    6150.0327    197.94358   -2522.9022    25304.163    25304.163 
    9360     6245.027    201.00104   -2525.9556    21195.916    21195.916 
    9370    6448.0011    207.53392   -2532.5056     9715.675     9715.675 
    9380     6242.344    200.91469   -2525.8703    866.76231    866.76231 
    9390    6073.5822    195.48296   -2520.4348   -10901.151   -10901.151 
    9400    6302.3073    202.84465   -2527.7935   -18983.811   -18983.811 
    9410    6789.0375    218.51044   -2543.4869   -21977.355   -21977.355 
    9420    6500.4708     209.2227    -2534.185   -15355.989   -15355.989 
    9430    6091.0952    196.04663   -2520.9841   -6279.8632   -6279.8632 
    9440    6442.0174    207.34133   -2532.3137    2060.6789    2060.6789 
    9450    6408.1085    206.24995   -2531.2183    17763.755    17763.755 
    9460    6073.3081    195.47413   -2520.4204    20803.876    20803.876 
    9470     6297.404    202.68683   -2527.6444     14207.24     14207.24 
    9480    6725.6677    216.47084   -2541.4378    8846.4823    8846.4823 
    9490    6836.0168    220.02251   -2544.9918    1595.7772    1595.7772 
    9500    6579.8051    211.77613   -2536.7346   -115.31562   -115.31562 
    9510    6298.0013    202.70606   -2527.6604   -426.82955   -426.82955 
    9520    6303.7522    202.89116   -2527.8395   -235.72905   -235.72905 
    9530    6641.8237    213.77225   -2538.7536   -5906.7677   -5906.7677 
    9540    6321.3538    203.45768    -2528.404     4983.123     4983.123 
    9550     6450.231    207.60569   -2532.5563    11089.451    11089.451 
    9560    6940.4763    223.38461   -2548.3742    6728.3512    6728.3512 
    9570     6443.449    207.38741   -2532.3441      2924.13      2924.13 
    9580    6103.1865    196.43579   -2521.3766   -690.49563   -690.49563 
    9590    6583.7244    211.90228   -2536.8777    90.052432    90.052432 
    9600    6640.0455    213.71502   -2538.6789     14019.53     14019.53 
    9610    6431.3725    206.99871   -2531.9587    27740.605    27740.605 
    9620    6242.3211    200.91395   -2525.8727    24990.249    24990.249 
    9630    6232.1635    200.58702   -2525.5467    19048.725    19048.725 
    9640     6280.567    202.14492   -2527.1089    12801.278    12801.278 
    9650     6270.901    201.83381   -2526.7858    9850.5003    9850.5003 
    9660    6479.7309    208.55517   -2533.5194     19480.84     19480.84 
    9670    6536.7861    210.39153   -2535.3538    27175.814    27175.814 
    9680    6527.8463     210.1038   -2535.0596    26740.015    26740.015 
    9690    6675.1931    214.84627   -2539.8119    20090.243    20090.243 
    9700    6837.9641    220.08518   -2545.0464    6971.7591    6971.7591 
    9710    6948.9997    223.65895   -2548.6298    4170.4817    4170.4817 
    9720    6766.8873    217.79752   -2542.7538    9379.1896    9379.1896 
    9730    6731.9404    216.67272   -2541.6341    11675.261    11675.261 
    9740    6701.0285     215.6778   -2540.6448     13829.03     13829.03 
    9750    6511.9912    209.59349   -2534.5542    17740.377    17740.377 
    9760    6375.3883    205.19682   -2530.1614    15337.763    15337.763 
    9770    6376.3912     205.2291   -2530.1813    11363.871    11363.871 
    9780    6760.6306    217.59614   -2542.5665    11672.536    11672.536 
    9790    6934.6092    223.19578   -2548.1619    14135.721    14135.721 
    9800    6912.6502    222.48901   -2547.4528    9064.1399    9064.1399 
    9810    6838.8551    220.11386   -2545.0755    8980.8537    8980.8537 
    9820    6963.9752    224.14095   -2549.1055    12973.224    12973.224 
    9830     7156.837    230.34835   -2555.3232     12700.21     12700.21 
    9840    7052.3068    226.98397     -2551.95    13123.955    13123.955 
    9850    6902.0702    222.14849   -2547.1134    12893.038    12893.038 
    9860    6738.7207    216.89096    -2541.857    8975.8659    8975.8659 
    9870    6518.6112    209.80656   -2534.7603    13753.464    13753.464 
    9880    6654.3181    214.17439   -2539.1294    20087.942    20087.942 
    9890    6934.5275    223.19315   -2548.1642        15007        15007 
    9900    6917.3569     222.6405   -2547.5989    12015.251    12015.251 
    9910    6962.2761    224.08626   -2549.0533    20790.792    20790.792 
    9920    6895.7565    221.94527   -2546.9043    31177.155    31177.155 
    9930    6883.6593    221.55592   -2546.5264    29929.885    29929.885 
    9940    6748.0493     217.1912   -2542.1478    23267.774    23267.774 
    9950    6902.1318    222.15047   -2547.1127    10600.079    10600.079 
    9960    7013.0351    225.71998   -2550.6967   -5198.4528   -5198.4528 
    9970    6596.3465    212.30853   -2537.2524   -5558.9301   -5558.9301 
    9980    6626.6061    213.28246   -2538.2459    6931.5941    6931.5941 
    9990    6582.6702    211.86835   -2536.8267    17908.007    17908.007 
   10000    6502.9157    209.30139   -2534.2561    15590.313    15590.313 
   10010    6628.0207    213.32799   -2538.2963    10707.966    10707.966 
   10020    6490.3937    208.89836   -2533.8621    7713.4849    7713.4849 
   10030    6305.7647    202.95593   -2527.9072   -2839.1957   -2839.1957 
   10040    6391.9803    205.73085   -2530.6905   -2715.0564   -2715.0564 
   10050     6399.173    205.96235   -2530.9201    6325.0067    6325.0067 
   10060     6308.923    203.05758   -2528.0164    11448.135    11448.135 
   10070    6294.7267    202.60066    -2527.549    8808.1373    8808.1373 
   10080    6686.3473    215.20528   -2540.1662     2132.442     2132.442 
   10090    6987.4223    224.89561    -2549.861      5824.58      5824.58 
   10100    7015.9221     225.8129   -2550.7822    13759.117    13759.117 
   10110    6677.0425    214.90579   -2539.8662    25685.094    25685.094 
   10120    6409.0776    206.28114   -2531.2256    27043.551    27043.551 
   10130    6703.8713     215.7693   -2540.7416    8692.9535    8692.9535 
   10140    6645.2299    213.88188   -2538.8357   -8606.5091   -8606.5091 
   10150     6635.088    213.55546   -2538.5101   -21852.278   -21852.278 
   10160    6729.2002    216.58453   -2541.5461   -24891.485   -24891.485 
   10170    6631.3504    213.43516   -2538.3971   -18238.523   -18238.523 
   10180    6438.3159    207.22219   -2532.1737   -13041.971   -13041.971 
   10190    6603.5497    212.54037   -2537.4998   -6300.5834   -6300.5834 
   10200    6694.7874    215.47693   -2540.4537   -13863.297   -13863.297 
   10210    6188.1008    199.16883    -2524.116   -13341.746   -13341.746 
   10220    6145.1348    197.78593   -2522.7346   -15596.889   -15596.889 
   10230    6564.9359    211.29756   -2536.2664   -7537.0509   -7537.0509 
   10240    6633.8288    213.51493   -2538.4927    8798.9601    8798.9601 
   10250    6130.7579     197.3232   -2522.2683     14878.21     14878.21 
   10260    6243.3344    200.94656   -2525.8974    745.03342    745.03342 
   10270    6691.0444    215.35646   -2540.3478   -9365.2171   -9365.2171 
   10280    6197.5745    199.47374   -2524.4214    -2362.543    -2362.543 
   10290    6208.9177    199.83884   -2524.7884   -43.859039   -43.859039 
   10300    6875.7203    221.30039   -2546.2785   -4420.5983   -4420.5983 
   10310    6934.2393    223.18387   -2548.1623    2273.4616    2273.4616 
   10320    6478.8842    208.52792   -2533.4796    7609.1035    7609.1035 
   10330     6492.789    208.97545     -2533.93   -3158.7891   -3158.7891 
   10340    6843.8728    220.27536    -2545.242    -24876.84    -24876.84 
   10350    6957.7144    223.93944   -2548.9069   -46108.153   -46108.153 
   10360    6607.0071    212.65165   -2537.6171   -42560.301   -42560.301 
   10370    6161.0769    198.29904    -2523.239   -24796.055   -24796.055 
   10380    6481.5163    208.61263   -2533.5869   -21723.549   -21723.549 
   10390    6493.6505    209.00318   -2533.9691   -27637.549   -27637.549 
[...]
   12500    6609.4143    212.72913   -2537.6952    25995.471    25995.471 
   12510     6827.607    219.75183   -2544.7188    22189.265    22189.265 
   12520    6858.2308    220.73748   -2545.7118    13794.739    13794.739 
   12530    6583.3944    211.89166   -2536.8495    9073.5254    9073.5254 
   12540    6569.3276    211.43891   -2536.3989    2824.3267    2824.3267 
   12550     6900.615    222.10165   -2547.0675    2379.0819    2379.0819 
   12560    7080.6253    227.89542   -2552.8751    7150.2967    7150.2967 
   12570    6754.2199    217.38981   -2542.3505    9495.0591    9495.0591 
   12580    6575.5815    211.64019   -2536.5951    18123.937    18123.937 
   12590    6649.8099    214.02929   -2538.9937    22458.368    22458.368 
   12600    6618.4772    213.02083   -2537.9835    28412.651    28412.651 
   12610    6513.9036    209.65504   -2534.6102    23612.902    23612.902 
   12620    6664.2366    214.49363   -2539.4561    8521.6084    8521.6084 
   12630    6733.0975    216.70997   -2541.6814   -5526.1853   -5526.1853 
   12640    6465.1283    208.08517   -2533.0415   -11937.676   -11937.676 
   12650     6507.059    209.43475   -2534.3994   -15284.866   -15284.866 
   12660    6644.6945    213.86465   -2538.8315   -13849.792   -13849.792 
   12670    6710.9745    215.99792   -2540.9609   -799.31794   -799.31794 
   12680    6844.7037     220.3021   -2545.2618    6770.4478    6770.4478 
   12690    6892.6685    221.84589   -2546.8225    934.35506    934.35506 
   12700    6561.9344    211.20095    -2536.152   -3691.6633   -3691.6633 
   12710    6668.8884    214.64335   -2539.6142   -1313.7759   -1313.7759 
   12720     6662.015    214.42212   -2539.3996    5763.4485    5763.4485 
   12730    6350.3916    204.39228   -2529.3444        20013        20013 
   12740     6570.169    211.46599   -2536.4376    28779.685    28779.685 
   12750    6606.8066     212.6452   -2537.6183    29082.024    29082.024 
   12760    6323.3502    203.52194   -2528.4772     24408.06     24408.06 
   12770    6402.7385    206.07711   -2531.0397    24836.555    24836.555 
   12780    6647.8073    213.96484   -2538.9447    30972.898    30972.898 
   12790    6549.3606    210.79626    -2535.762    37568.521    37568.521 
   12800     6610.391    212.76057   -2537.7313    39913.485    39913.485 
   12810    6902.1325    222.15049    -2547.135    42019.628    42019.628 
   12820    6904.6638    222.23196   -2547.2063    39855.022    39855.022 
   12830    6636.9026    213.61386   -2538.5854    31614.095    31614.095 
   12840    6474.7745    208.39564   -2533.3526    17544.999    17544.999 
   12850    6764.4376    217.71867   -2542.6977    5765.7405    5765.7405 
   12860    6686.4241    215.20775   -2540.1633    1911.7957    1911.7957 
   12870    6854.4121    220.61457   -2545.5855    2398.9314    2398.9314 
   12880    6883.8777    221.56295   -2546.5323    2564.4214    2564.4214 
   12890    6760.0388     217.5771   -2542.5378    2997.1534    2997.1534 
   12900    6833.1904    219.93154   -2544.8921   -9028.0179   -9028.0179 
   12910    6940.3716    223.38125   -2548.3516   -26088.547   -26088.547 
   12920    6750.9271    217.28383   -2542.2544    -32977.35    -32977.35 
   12930    6290.6708    202.47012   -2527.4209   -23849.426   -23849.426 
   12940    6305.2908    202.94068   -2527.8918   -15583.427   -15583.427 
   12950    6790.3652    218.55317   -2543.5286   -9755.9175   -9755.9175 
   12960    6830.9132    219.85824   -2544.8404    5828.1457    5828.1457 
   12970    6487.0218    208.78983   -2533.7403    27814.165    27814.165 
   12980    6787.5388     218.4622   -2543.4418    33482.183    33482.183 
   12990    6782.5927    218.30301   -2543.2805    29291.742    29291.742 
   13000    6564.6187    211.28735   -2536.2355      24623.3      24623.3 
   13010    6913.0536    222.50199    -2547.489    16015.165    16015.165 
   13020    6741.5295    216.98136   -2541.9447     6308.983     6308.983 
   13030    6555.0037    210.97788   -2535.9401    7212.2668    7212.2668 
   13040    6605.4082    212.60019   -2537.5589   -127.89579   -127.89579 
   13050    6899.5903    222.06867   -2547.0411   -13262.523   -13262.523 
   13060    6930.9799    223.07897   -2548.0551   -15288.465   -15288.465 
   13070    6587.6422    212.02838   -2536.9838   -6805.7147   -6805.7147 
   13080    6724.3755    216.42924   -2541.3906      285.687      285.687 
   13090    7136.6761    229.69946   -2554.6819    664.59999    664.59999 
   13100     7064.859    227.38797   -2552.3665    10800.138    10800.138 
   13110    6642.9777    213.80939   -2538.7724    24414.335    24414.335 
   13120    6602.6417    212.51115   -2537.4642    24742.509    24742.509 
   13130    7180.1282      231.098   -2556.0852    13432.312    13432.312 
   13140    7108.1115    228.78009   -2553.7521    7077.0406    7077.0406 
   13150    6725.9406    216.47962   -2541.4382    11182.766    11182.766 
   13160    6584.4404    211.92532   -2536.8886     10173.03     10173.03 
   13170    6600.9524    212.45678   -2537.4175    6556.1998    6556.1998 
   13180    6748.0542    217.19136   -2542.1579   -385.40904   -385.40904 
   13190    6729.7128    216.60103   -2541.5648   -11501.839   -11501.839 
   13200     6620.306    213.07969   -2538.0536   -12787.386   -12787.386 
   13210    6302.1412    202.83931   -2527.7972   -9331.3659   -9331.3659 
   13220     6378.386     205.2933   -2530.2418   -6399.7913   -6399.7913 
   13230    6953.1478    223.79246   -2548.7691   -2755.4964   -2755.4964 
   13240    6917.9568    222.65981   -2547.6237     2407.936     2407.936 
   13250    6731.3254    216.65293   -2541.6005    5440.9508    5440.9508 
   13260    7047.3282    226.82373   -2551.7946    7888.0261    7888.0261 
   13270    7035.8459    226.45416   -2551.4339    9006.2299    9006.2299 
   13280     6413.799     206.4331   -2531.3804    7449.8357    7449.8357 
   13290    6364.8337    204.85711   -2529.8113    2578.2227    2578.2227 
   13300    6713.0082    216.06338   -2541.0379    943.32715    943.32715 
   13310     6726.351    216.49283   -2541.4449    12061.624    12061.624 
   13320    6968.4498    224.28496   -2549.2584     12663.29     12663.29 
   13330    6903.3314    222.18908   -2547.1601    8763.8331    8763.8331 
   13340    6555.3776    210.98991   -2535.9446     13924.71     13924.71 
   13350    6490.6674    208.90717   -2533.8714    13374.884    13374.884 
   13360    6420.3939    206.64536   -2531.6081    8270.6078    8270.6078 
   13370    6276.3037    202.00771   -2526.9688     11559.62     11559.62 
   13380    6334.1542    203.86967   -2528.8287    7125.4228    7125.4228 
   13390    6750.1946    217.26025   -2542.2289   -1221.2681   -1221.2681 
   13400    6931.9417    223.10992   -2548.0971    -317.4173    -317.4173 
   13410    6462.8096    208.01054   -2532.9693    16518.162    16518.162 
   13420    6376.5061     205.2328   -2530.1834    31859.104    31859.104 
   13430    6980.6146     224.6765   -2549.6594    28722.603    28722.603 
   13440    7007.4066    225.53882   -2550.5205    11781.707    11781.707 
   13450    6518.2252    209.79414   -2534.7351    4748.3453    4748.3453 
   13460    6874.4927    221.26088   -2546.2338    6254.6874    6254.6874 
   13470    6939.3646    223.34884    -2548.328    12221.654    12221.654 
   13480     6403.262    206.09396   -2531.0452    19088.646    19088.646 
   13490    6313.0406    203.19011   -2528.1485    19786.754    19786.754 
   13500    6524.2035    209.98655   -2534.9541    28146.925    28146.925 
   13510    6637.0216    213.61769   -2538.5797    33941.609    33941.609 
   13520    6733.6032    216.72624   -2541.6923    31378.876    31378.876 
   13530    6687.3893    215.23881   -2540.2115    31141.142    31141.142 
   13540    6511.6644    209.58297   -2534.5368    33035.239    33035.239 
   13550    6752.3971    217.33114   -2542.3024    30707.549    30707.549 
   13560    6876.6886    221.33156   -2546.2967    27970.607    27970.607 
   13570    6999.7416    225.29212     -2550.26    19695.212    19695.212 
   13580     6991.472    225.02595   -2549.9964    10505.631    10505.631 
   13590    6667.7291    214.60604   -2539.5562    8087.6242    8087.6242 
   13600    6726.6324    216.50188   -2541.4653    12142.893    12142.893 
   13610    6792.6457    218.62657   -2543.5981    14400.017    14400.017 
   13620    6514.4637    209.67307    -2534.632    14241.782    14241.782 
   13630    6391.9229      205.729   -2530.6832    13890.654    13890.654 
   13640    6611.1412    212.78471   -2537.7571    15971.907    15971.907 
   13650    6599.8563     212.4215     -2537.39    30105.251    30105.251 
   13660    6491.2986    208.92748   -2533.8779    44309.549    44309.549 
   13670    6774.6492    218.04734   -2543.0157    46530.842    46530.842 
   13680     6848.319    220.41846   -2545.3933    43494.475    43494.475 
   13690     6623.684    213.18841   -2538.1501    38574.967    38574.967 
   13700    6678.2536    214.94478   -2539.9134    20777.311    20777.311 
   13710    6738.1235    216.87173   -2541.8435    14381.449    14381.449 
   13720    6589.6851    212.09413   -2537.0624    20606.873    20606.873 
   13730    6366.0265     204.8955   -2529.8545    28059.494    28059.494 
   13740    6372.9095    205.11704    -2530.076     29317.88     29317.88 
   13750    6636.1278    213.58892   -2538.5634    19951.335    19951.335 
   13760    6623.8349    213.19327   -2538.1635    12319.009    12319.009 
   13770    6480.4079    208.57696   -2533.5363     14586.27     14586.27 
   13780     6528.898    210.13765   -2535.1064    14362.706    14362.706 
   13790    6510.7707    209.55421   -2534.5181    12482.938    12482.938 
   13800    6459.5798    207.90659   -2532.8729    17922.134    17922.134 
   13810    6441.5814     207.3273   -2532.2826    19022.613    19022.613 
   13820    6703.9938    215.77324   -2540.7501    19373.989    19373.989 
   13830     6615.415    212.92226    -2537.895    31658.349    31658.349 
   13840    6309.8003    203.08582   -2528.0406    38329.614    38329.614 
   13850    6454.8567    207.75457   -2532.7208    21604.037    21604.037 
   13860    6568.2794    211.40517   -2536.3776    6440.7645    6440.7645 
   13870    6384.9037    205.50308   -2530.4558    3755.9754    3755.9754 
   13880    6544.0952    210.62678   -2535.5906   -777.12114   -777.12114 
   13890    6674.7784    214.83292   -2539.8079     1558.907     1558.907 
   13900    6382.6828     205.4316   -2530.3849    3440.4932    3440.4932 
   13910     6523.082    209.95046   -2534.8977   -112.11712   -112.11712 
   13920     7153.277    230.23377   -2555.2203   -2129.0073   -2129.0073 
   13930    6778.1156    218.15891   -2543.1191    4375.4704    4375.4704 
   13940    6337.9985     203.9934   -2528.9295    8503.2553    8503.2553 
   13950    6832.4052    219.90627   -2544.8747   -8984.9878   -8984.9878 
   13960    7069.1678    227.52665   -2552.5063   -20400.588   -20400.588 
   13970    6577.9279    211.71571   -2536.6632   -18721.872   -18721.872 
   13980    6417.9012    206.56513   -2531.5185    -25288.11    -25288.11 
   13990    6623.7879    213.19175   -2538.1545   -27882.051   -27882.051 
   14000    6678.6813    214.95854    -2539.928    -13435.94    -13435.94 
   14010    6385.4869    205.52185    -2530.476    -1613.746    -1613.746 
   14020    6328.2556    203.67982   -2528.6404   -7780.0395   -7780.0395 
   14030    6364.6752    204.85201   -2529.8175   -18917.278   -18917.278 
   14040     6295.929    202.63936   -2527.5984    -21022.64    -21022.64 
   14050    6314.6134    203.24073   -2528.2042   -17883.693   -17883.693 
   14060    6390.6041    205.68655   -2530.6475   -17106.252   -17106.252 
   14070    6454.6413    207.74764   -2532.7176   -14217.884   -14217.884 
   14080    6203.6019    199.66774   -2524.6271   -12975.252   -12975.252 
   14090     6030.992    194.11216    -2519.066   -17680.304   -17680.304 
   14100    6154.7047    198.09395   -2523.0579   -16724.388   -16724.388 
   14110    6240.0972    200.84237   -2525.7933   -14388.494   -14388.494 
   14120    6596.5844    212.31619   -2537.2764   -11687.973   -11687.973 
   14130    6832.7076      219.916    -2544.893   -7262.8642   -7262.8642 
   14140    6380.5696    205.36359   -2530.3234    2393.1969    2393.1969 
   14150    6117.2146     196.8873   -2521.8291   -2265.9293   -2265.9293 
   14160    6739.4087     216.9131    -2541.884   -14486.648   -14486.648 
   14170    7096.7539    228.41453   -2553.4003   -19294.502   -19294.502 
   14180    6733.5833    216.72561   -2541.6754   -12665.072   -12665.072 
   14190    6882.0633    221.50455   -2546.4682   -5843.9928   -5843.9928 
   14200    7015.9805    225.81478    -2550.794   -5551.0029   -5551.0029 
   14210    6551.6397    210.86961   -2535.8176    -935.1898    -935.1898 
   14220    6526.0261    210.04521   -2535.0093    7083.9725    7083.9725 
   14230    6463.5869    208.03556   -2533.0064    16956.147    16956.147 
   14240    6261.9128    201.54452   -2526.4882    18283.619    18283.619 
   14250     6793.326    218.64847   -2543.6213    3534.0032    3534.0032 
   14260    7026.3956    226.14999   -2551.1351     -10676.4     -10676.4 
   14270     6458.078    207.85825   -2532.8095   -5114.7362   -5114.7362 
   14280    6330.4427    203.75021   -2528.7024    5083.2396    5083.2396 
   14290    6699.0504    215.61414   -2540.5873    11226.075    11226.075 
   14300    6716.7979    216.18535   -2541.1508    12680.557    12680.557 
   14310    6530.0227    210.17385   -2535.1303     5934.877     5934.877 
   14320    6528.1239    210.11273   -2535.0774   -66.703154   -66.703154 
   14330    6490.6642    208.90707   -2533.8665    9050.6832    9050.6832 
   14340    6432.1896    207.02501   -2531.9812    15330.772    15330.772 
   14350    6555.4188    210.99124   -2535.9501     13546.15     13546.15 
   14360    6756.3004    217.45677   -2542.4181     16622.83     16622.83 
   14370    6898.0946    222.02053   -2546.9961    18900.665    18900.665 
   14380    6639.2059    213.68799   -2538.6383    19296.749    19296.749 
   14390    6839.5109    220.13497   -2545.0908    13738.581    13738.581 
   14400    7214.2101    232.19495   -2557.1791    9571.3123    9571.3123 
   14410    6728.8944    216.57469   -2541.5253    13033.611    13033.611 
   14420    6435.9534    207.14616   -2532.1057     10190.71     10190.71 
   14430    6354.1588    204.51353   -2529.4715    1498.5388    1498.5388 
   14440    6448.4869    207.54956   -2532.5177    2177.0291    2177.0291 
   14450    6465.2249    208.08828   -2533.0554    5752.5317    5752.5317 
   14460    6386.5826    205.55712   -2530.5176     18164.68     18164.68 
   14470    6538.8169     210.4569   -2535.4249    21079.997    21079.997 
   14480    6701.9729     215.7082   -2540.6787    18562.415    18562.415 
   14490     6617.103     212.9766    -2537.951    19288.407    19288.407 
   14500     6284.332     202.2661   -2527.2135    21870.794    21870.794 
   14510    6547.8272     210.7469   -2535.7081    8187.2839    8187.2839 
   14520    6894.7161    221.91179   -2546.8928   -10480.012   -10480.012 
   14530    6610.8867    212.77652   -2537.7352   -4484.7523   -4484.7523 
   14540    6432.1865    207.02492   -2531.9883     2917.908     2917.908 
   14550    6401.5287    206.03817   -2531.0002    3853.8104    3853.8104 
   14560    6440.8331    207.30321   -2532.2681   -2493.5109   -2493.5109 
   14570    6400.5691    206.00729   -2530.9644   -7325.4533   -7325.4533 
   14580    6564.5005    211.28354   -2536.2416   -8825.2175   -8825.2175 
   14590    6845.7328    220.33522   -2545.3079    4651.8537    4651.8537 
   14600    6674.9828     214.8395    -2539.804     23174.47     23174.47 
   14610    6498.0805    209.14577   -2534.0998    21696.332    21696.332 
   14620    6554.7012    210.96815   -2535.9345    8762.0881    8762.0881 
   14630    6482.3226    208.63858   -2533.5902   -2285.9144   -2285.9144 
   14640    6629.0752    213.36193   -2538.3197   -9798.1888   -9798.1888 
   14650    6727.5421    216.53116   -2541.5027   -11853.926   -11853.926 
   14660    6410.3381    206.32171   -2531.2793   -5564.2658   -5564.2658 
   14670    6217.2006    200.10543   -2525.0569    15318.165    15318.165 
   14680    6529.3423    210.15195   -2535.1189    34919.012    34919.012 
   14690    6729.7058     216.6008    -2541.574    26398.417    26398.417 
   14700    6557.9172    211.07165   -2536.0285    5942.3472    5942.3472 
   14710    6582.9483     211.8773   -2536.8324   -15811.353   -15811.353 
   14720    6742.3244    217.00694    -2541.986   -19576.701   -19576.701 
   14730    6344.4523    204.20112   -2529.1509   -5602.6077   -5602.6077 
   14740    6386.7755    205.56333   -2530.5163    7727.0808    7727.0808 
   14750    6805.6367     219.0447   -2544.0226    8302.0869    8302.0869 
   14760    6704.7206    215.79664   -2540.7533     11568.14     11568.14 
   14770    6644.8213    213.86873   -2538.8308    13841.403    13841.403 
   14780    6682.6716    215.08697   -2540.0432    12498.252    12498.252 
   14790    6844.0511     220.2811   -2545.2606    14086.901    14086.901 
   14800    6592.1504    212.17348   -2537.1347    20633.584    20633.584 
   14810      6463.31    208.02665   -2532.9967    38838.929    38838.929 
   14820    6506.6681    209.42216   -2534.3786    62332.579    62332.579 
   14830    6799.8452     218.8583   -2543.8436    75326.678    75326.678 
   14840    6378.1662    205.28623   -2530.2547    76931.167    76931.167 
   14850    5956.6264    191.71864    -2516.661    59878.328    59878.328 
   14860    6381.1364    205.38183   -2530.3585    31115.724    31115.724 
   14870    6429.1724     206.9279   -2531.8899    19888.546    19888.546 
   14880    6353.4758    204.49155   -2529.4508    18857.573    18857.573 
   14890    6438.6961    207.23443   -2532.1923    17817.399    17817.399 
   14900    6684.1465    215.13444    -2540.094    18946.955    18946.955 
   14910    6935.2958    223.21788   -2548.1927    22288.473    22288.473 
   14920    6766.1006     217.7722   -2542.7236    26849.714    26849.714 
   14930    6792.7525    218.63001   -2543.5971    20171.506    20171.506 
   14940    6717.5331    216.20902   -2541.1667     13417.88     13417.88 
   14950    6733.1434    216.71145   -2541.6693   -2656.9292   -2656.9292 
   14960    6809.7803    219.17806    -2544.151   -12323.861   -12323.861 
   14970    6533.6293    210.28993   -2535.2396    -84.25332    -84.25332 
   14980     6626.354    213.27435   -2538.2404    12365.239    12365.239 
   14990    6807.4028    219.10154   -2544.0604    17193.567    17193.567 
   15000    7099.6418    228.50748   -2553.4977    21586.592    21586.592 
Loop time of 16.4924 on 1 procs for 15000 steps with 250 atoms

Performance: 39.291 ns/day, 0.611 hours/ns, 909.510 timesteps/s
99.9% CPU use with 1 MPI tasks x no OpenMP threads

MPI task timing breakdown:
Section |  min time  |  avg time  |  max time  |%varavg| %total
---------------------------------------------------------------
Pair    | 15.518     | 15.518     | 15.518     |   0.0 | 94.09
Neigh   | 0.55293    | 0.55293    | 0.55293    |   0.0 |  3.35
Comm    | 0.070572   | 0.070572   | 0.070572   |   0.0 |  0.43
Output  | 0.28916    | 0.28916    | 0.28916    |   0.0 |  1.75
Modify  | 0.0319     | 0.0319     | 0.0319     |   0.0 |  0.19
Other   |            | 0.02959    |            |       |  0.18

Nlocal:    250 ave 250 max 250 min
Histogram: 1 0 0 0 0 0 0 0 0 0
Nghost:    865 ave 865 max 865 min
Histogram: 1 0 0 0 0 0 0 0 0 0
Neighs:    0 ave 0 max 0 min
Histogram: 1 0 0 0 0 0 0 0 0 0
FullNghs:  8382 ave 8382 max 8382 min
Histogram: 1 0 0 0 0 0 0 0 0 0

Total # of neighbors = 8382
Ave neighs/atom = 33.528
Neighbor list builds = 1500
Dangerous builds not checked

Total wall time: 0:00:16
