
# Define the lattice
variable	lattice_constant equal 3.8
lattice		bcc ${lattice_constant}
lattice		bcc 3.8
Lattice spacing in x,y,z = 3.8 3.8 3.8

# Define region
# multiples of lattice spacing
region 		simbox block 0 5 0 5 0 5

# Create Atoms
create_box 	1 simbox
Created orthogonal box = (0 0 0) to (19 19 19)
  1 by 1 by 1 MPI processor grid
create_atoms 	1 box
Created 250 atoms
  Time spent = 0.000159979 secs
mass		1 18.015

velocity	all create 200.0 97287

# Define Interatomic Potential
pair_style	sw
pair_coeff	* * mW.sw mW
Reading potential file mW.sw with DATE: 2019-02-27

neighbor 	2.0 bin
neigh_modify	delay 10 check no

# Pressure computations
compute		total_press all pressure thermo_temp
compute		peratom all stress/atom NULL
compute		p all reduce sum c_peratom[1] c_peratom[2] c_peratom[3]
variable	press equal -(c_p[1]+c_p[2]+c_p[3])/(3*vol)

# Density computations
variable	total_mass equal mass(all)
variable	v equal vol
print 		${total_mass}
print 		4503.75
4503.75
print		$v
print		6859
6859

variable 	density equal v_total_mass/(v_v*18.015)
print 		${density}
print 		0.0364484618749089
0.0364484618749089


# Run equilibration
thermo_style	custom step temp ke pe c_total_press v_press
thermo		10
dump		1 all atom 10 ${simname}.dump
dump		1 all atom 10 mW_bcc_3.8.dump

fix 		1 all nve
#temp 300.0 300.0 100.0 iso 0.0 0.0 1000.0
timestep	0.0005
run		15000
Neighbor list info ...
  update every 1 steps, delay 10 steps, check no
  max neighbors/atom: 2000, page size: 100000
  master list distance cutoff = 6.3065
  ghost atom cutoff = 6.3065
  binsize = 3.15325, bins = 7 7 7
  1 neighbor lists, perpetual/occasional/extra = 1 0 0
  (1) pair sw, perpetual
      attributes: full, newton on
      pair build: full/bin/atomonly
      stencil: full/bin/3d
      bin: standard
Per MPI rank memory allocation (min/avg/max) = 4.355 | 4.355 | 4.355 Mbytes
Step Temp KinEng PotEng c_total_press v_press 
       0          200    6.4371552   -2654.3452   -635610.98   -635610.98 
      10    150.87554    4.8560464   -2652.7622   -630995.79   -630995.79 
      20    78.762792    2.5350416    -2650.439   -623877.25   -623877.25 
      30    76.107356    2.4495743   -2650.3546   -622250.85   -622250.85 
      40    103.79601    3.3407552   -2651.2474   -622579.31   -622579.31 
      50    94.608156    3.0450369   -2650.9509   -619171.55   -619171.55 
      60    79.279637    2.5516766   -2650.4564   -615217.82   -615217.82 
      70    102.91608    3.3124339   -2651.2181   -615033.63   -615033.63 
      80    126.85553    4.0829438   -2651.9896   -615350.44   -615350.44 
      90    111.20152    3.5791073   -2651.4848    -612557.1    -612557.1 
     100    94.329227    3.0360594   -2650.9409   -609805.95   -609805.95 
     110    111.67319    3.5942883      -2651.5   -609937.65   -609937.65 
     120    128.66421    4.1411575   -2652.0476   -609734.52   -609734.52 
     130    118.44652    3.8122933   -2651.7178   -606776.75   -606776.75 
     140    117.41689    3.7791537    -2651.684   -604480.85   -604480.85 
     150    150.26596    4.8364264   -2652.7422   -605482.18   -605482.18 
     160    179.29803    5.7708463   -2653.6774   -606720.71   -606720.71 
     170    173.88904    5.5967536   -2653.5026    -605050.1    -605050.1 
     180    164.62381    5.2985451   -2653.2035   -602160.59   -602160.59 
     190    186.92393    6.0162919   -2653.9218   -600304.29   -600304.29 
     200    219.21633    7.0556478    -2654.962   -597755.84   -597755.84 
     210    227.52912    7.3232014   -2655.2292   -592321.56   -592321.56 
     220    226.98634    7.3057317   -2655.2112   -585380.11   -585380.11 
     230    238.28951    7.6695329   -2655.5754   -578384.32   -578384.32 
     240    248.26969    7.9907526   -2655.8968   -569940.55   -569940.55 
     250    249.45876    8.0290238   -2655.9347   -558950.76   -558950.76 
     260    255.42488    8.2210481   -2656.1266   -546041.55   -546041.55 
     270    273.31638    8.7968999   -2656.7027   -531587.47   -531587.47 
     280    295.82567    9.5213789   -2657.4273   -515714.18   -515714.18 
     290    322.49952    10.379897   -2658.2857   -498796.58   -498796.58 
     300    356.89387    11.486906   -2659.3931   -480950.09   -480950.09 
     310    385.03107    12.392524   -2660.2988   -461522.31   -461522.31 
     320    406.91736    13.096951   -2661.0029    -441702.6    -441702.6 
     330    437.48438    14.080774   -2661.9868   -422821.19   -422821.19 
     340    476.13362     15.32473    -2663.231   -403915.11   -403915.11 
     350    516.20699    16.614523    -2664.521   -384697.54   -384697.54 
     360    557.57339    17.945932   -2665.8525   -365709.85   -365709.85 
     370     600.8431    19.338602   -2667.2453   -347220.55   -347220.55 
     380    640.98282     20.63053   -2668.5374   -328860.26   -328860.26 
     390    675.06601    21.727523   -2669.6343   -310201.55   -310201.55 
     400    712.60363    22.935701   -2670.8424   -291785.55   -291785.55 
     410    758.80787     24.42282   -2672.3305   -274761.28   -274761.28 
     420    785.86509    25.293678   -2673.2013   -260041.38   -260041.38 
     430    799.22661    25.723729   -2673.6306   -248161.01   -248161.01 
     440    830.56649    26.732427   -2674.6399   -237824.49   -237824.49 
     450    864.30831    27.818434   -2675.7262   -226363.66   -226363.66 
     460    892.89291    28.738451   -2676.6457   -212322.46   -212322.46 
     470    938.58719    30.209157   -2678.1173   -197444.54   -197444.54 
     480    976.25709    31.421592   -2679.3305   -183945.33   -183945.33 
     490    985.15889    31.708103   -2679.6162   -171906.69   -171906.69 
     500    1001.7821    32.243134    -2680.151    -160581.6    -160581.6 
     510    1040.8074    33.499194   -2681.4078   -148417.09   -148417.09 
     520    1076.3256    34.642374   -2682.5513   -135505.68   -135505.68 
     530    1096.5974    35.294838   -2683.2036   -124438.55   -124438.55 
     540    1115.7058    35.909857   -2683.8186   -116271.57   -116271.57 
     550    1148.8313    36.976027   -2684.8847   -109620.29   -109620.29 
     560    1204.2885    38.760959   -2686.6703   -103882.89   -103882.89 
     570    1257.7726    40.482387   -2688.3924    -97294.91    -97294.91 
     580    1293.0946    41.619253   -2689.5289   -89599.632   -89599.632 
     590    1331.9912    42.871172   -2690.7811   -83118.059   -83118.059 
     600    1374.7443    44.247213   -2692.1579   -78759.349   -78759.349 
     610    1395.5926    44.918231    -2692.829   -74724.512   -74724.512 
     620    1396.5808    44.950036   -2692.8608   -69872.795   -69872.795 
     630    1390.1979    44.744599   -2692.6556   -63478.895   -63478.895 
     640    1380.2964     44.42591   -2692.3368    -57252.24    -57252.24 
     650    1385.0395    44.578572   -2692.4892   -54571.117   -54571.117 
     660    1412.8101    45.472389   -2693.3846   -54989.941   -54989.941 
     670    1421.3582    45.747518   -2693.6593   -54236.024   -54236.024 
     680    1436.3378    46.229647   -2694.1409   -51237.916   -51237.916 
     690    1489.5124    47.941114   -2695.8536   -47242.131   -47242.131 
     700    1541.4002    49.611162   -2697.5246   -43444.675   -43444.675 
     710    1561.9176     50.27153   -2698.1848   -39402.925   -39402.925 
     720    1574.7305    50.683925   -2698.5963   -34163.027   -34163.027 
     730    1625.8214    52.328324   -2700.2415   -26577.997   -26577.997 
     740    1710.4629    55.052575   -2702.9679   -18139.864   -18139.864 
     750    1750.8495    56.352449   -2704.2692   -10682.214   -10682.214 
     760    1727.8738    55.612958   -2703.5261   -7236.6959   -7236.6959 
     770    1769.0072    56.936869   -2704.8538   -11813.519   -11813.519 
     780    1779.3687    57.270363   -2705.1864   -17816.172   -17816.172 
     790    1791.2251     57.65197   -2705.5666   -17979.297   -17979.297 
     800    1857.4695    59.784096   -2707.7024   -11748.621   -11748.621 
     810    1873.6812    60.305885   -2708.2222    -2363.956    -2363.956 
     820    1913.0287    61.572312   -2709.4904    2301.1388    2301.1388 
     830      1915.91    61.665051    -2709.586    3052.7681    3052.7681 
     840     1829.623    58.887837   -2706.8018    3767.5908    3767.5908 
     850    1906.4153    61.359457   -2709.2774    2612.3942    2612.3942 
     860    2013.5436    64.807464   -2712.7311    4168.5836    4168.5836 
     870    1957.6257    63.007702   -2710.9251    8959.8202    8959.8202 
     880    1938.3843    62.388403   -2710.3081    9975.2088    9975.2088 
     890    1922.1709    61.866563   -2709.7872    10461.325    10461.325 
     900    1890.9117     60.86046   -2708.7797    10829.752    10829.752 
     910     1881.682    60.563395   -2708.4856    12692.968    12692.968 
     920    1814.3012    58.394693   -2706.3128    16027.563    16027.563 
     930    1831.5518    58.949917   -2706.8691     15472.15     15472.15 
     940     1907.563    61.396397   -2709.3197    14494.455    14494.455 
     950     1887.457    60.749268     -2708.67    17254.153    17254.153 
     960    1886.8954    60.731194   -2708.6487    21642.396    21642.396 
     970    2027.6729    65.262228   -2713.1854    15582.992    15582.992 
     980    2095.2077    67.435886   -2715.3625     2831.171     2831.171 
     990    1966.8197    63.303618   -2711.2233   -4784.3829   -4784.3829 
    1000    1902.8548     61.24486   -2709.1631   -8320.4823   -8320.4823 
    1010    1978.6178    63.683349   -2711.6076   -7224.0455   -7224.0455 
    1020    1979.3558    63.707102   -2711.6301   -586.79147   -586.79147 
    1030    1936.5509    62.329395     -2710.25    4787.7702    4787.7702 
    1040    1966.0196    63.277868   -2711.1993    8209.9744    8209.9744 
    1050    2051.4804    66.028489   -2713.9534    15510.854    15510.854 
    1060    2064.3004    66.441111   -2714.3645    24014.238    24014.238 
    1070    2076.2712    66.826401   -2714.7463     26758.84     26758.84 
    1080    2201.4683    70.855966   -2718.7825    20171.832    20171.832 
    1090    2240.7732    72.121024   -2720.0444    17013.384    17013.384 
    1100    2283.2233    73.487314   -2721.4113     21390.77     21390.77 
    1110     2308.594    74.303889   -2722.2334    25255.421    25255.421 
    1120    2148.2476    69.143018    -2717.067    27043.191    27043.191 
    1130    2034.4634    65.480785   -2713.3995    27946.023    27946.023 
    1140    2179.6432    70.153507   -2718.0793    29513.316    29513.316 
    1150    2296.4531    73.913126    -2721.843    34620.762    34620.762 
    1160    2229.7166    71.765159   -2719.6876    39966.482    39966.482 
    1170    2247.0514    72.323092   -2720.2454    40488.312    40488.312 
    1180    2362.5285    76.039814   -2723.9671    39890.078    39890.078 
    1190    2345.0157    75.476151   -2723.4049    38538.658    38538.658 
    1200    2192.1754    70.556868    -2718.475    32681.887    32681.887 
    1210    2270.3827    73.074028   -2721.0002    26591.458    26591.458 
    1220    2306.6067    74.239927   -2722.1707    35086.663    35086.663 
    1230    2138.3085    68.823119   -2716.7421    48276.484    48276.484 
    1240    2187.6306    70.410587   -2718.3324    52439.974    52439.974 
    1250    2392.9467    77.018846   -2724.9459    48980.122    48980.122 
    1260    2478.5066    79.772657   -2727.7026    43858.887    43858.887 
    1270    2388.2083    76.866338   -2724.7905     43110.16     43110.16 
    1280    2343.6944    75.433623   -2723.3598    44204.066    44204.066 
    1290    2320.4448    74.685317   -2722.6098    44868.427    44868.427 
    1300     2332.071    75.059516    -2722.986    42012.515    42012.515 
    1310    2316.4326     74.55618   -2722.4832     37398.92     37398.92 
    1320    2285.0328    73.545556   -2721.4711    38562.791    38562.791 
    1330    2294.2926    73.843588   -2721.7717    46426.119    46426.119 
    1340    2280.6071     73.40311    -2721.331    55656.217    55656.217 
    1350    2271.9252    73.123676   -2721.0503    59492.612    59492.612 
    1360     2337.064    75.220219   -2723.1476    56478.992    56478.992 
    1370    2410.6208      77.5877   -2725.5194    51287.795    51287.795 
    1380    2343.3672    75.423093   -2723.3484     46551.87     46551.87 
    1390     2342.649    75.399976   -2723.3252    39665.869    39665.869 
    1400    2421.1431    77.926371   -2725.8578    34774.562    34774.562 
    1410    2375.9102    76.470514   -2724.3968     38285.81     38285.81 
    1420     2397.817    77.175602   -2725.1003    42988.521    42988.521 
    1430    2512.2781     80.85962   -2728.7919    43734.525    43734.525 
    1440    2468.1577     79.43957   -2727.3649    44711.429    44711.429 
    1450    2473.6508    79.616371   -2727.5428    41392.984    41392.984 
    1460    2521.8105    81.166428   -2729.0971    40539.809    40539.809 
    1470    2460.3482    79.188218   -2727.1152    47669.043    47669.043 
    1480    2445.7907    78.719671   -2726.6448    50502.496    50502.496 
    1490    2544.6933     81.90293   -2729.8351     48040.54     48040.54 
    1500    2510.3481    80.797503   -2728.7278    49613.084    49613.084 
    1510     2394.314    77.062854   -2724.9874    51058.775    51058.775 
    1520    2422.7586    77.978366   -2725.9042    44378.426    44378.426 
    1530    2534.5618    81.576838   -2729.5084    36364.244    36364.244 
    1540    2484.4365    79.963516    -2727.893    37893.824    37893.824 
    1550    2374.1815    76.414874   -2724.3378    45402.144    45402.144 
    1560    2471.2398    79.538772    -2727.468    52318.169    52318.169 
    1570    2576.5075    82.926893   -2730.8595    55793.225    55793.225 
    1580    2487.0678    80.048209   -2727.9805     51581.11     51581.11 
    1590    2290.1493    73.710234   -2721.6314    50206.724    50206.724 
    1600    2394.7664    77.077417    -2725.007     53611.26     53611.26 
    1610    2517.7604    81.036073   -2728.9707    58232.098    58232.098 
    1620    2481.0908    79.855834   -2727.7824    60892.638    60892.638 
    1630    2572.2247    82.789048   -2730.7204     57231.91     57231.91 
    1640    2657.2261    85.524884   -2733.4575     51908.06     51908.06 
    1650    2628.8991    84.613159   -2732.5459    47634.269    47634.269 
    1660    2511.8653    80.846335    -2728.772    46550.067    46550.067 
    1670    2522.2037    81.179084   -2729.1096    45834.709    45834.709 
    1680     2485.082    79.984293   -2727.9168    44493.896    44493.896 
    1690    2352.6223    75.720976   -2723.6445     45617.69     45617.69 
    1700    2429.1271    78.183342   -2726.1138    47704.538    47704.538 
    1710    2508.4124    80.735201   -2728.6675    50256.669    50256.669 
    1720    2480.4793    79.836151   -2727.7664    50048.659    50048.659 
    1730    2438.4758    78.484235   -2726.4138    50288.072    50288.072 
    1740    2437.5831    78.455505   -2726.3844    50718.653    50718.653 
    1750    2502.7986    80.554516   -2728.4849    53389.905    53389.905 
    1760    2578.6368    82.995426   -2730.9279    54643.136    54643.136 
    1770    2584.1269    83.172129   -2731.1039    52555.504    52555.504 
    1780    2586.0348    83.233536   -2731.1639    49147.541    49147.541 
    1790    2594.9438     83.52028   -2731.4564    50663.197    50663.197 
    1800    2470.1614    79.504062   -2727.4315    57982.806    57982.806 
    1810    2521.6336    81.160734   -2729.0911    61299.167    61299.167 
    1820    2645.6355     85.15183   -2733.0882    62246.189    62246.189 
    1830    2601.2716    83.723946   -2731.6544    67199.343    67199.343 
    1840    2603.4189    83.793059   -2731.7217    68543.277    68543.277 
    1850    2703.7008    87.020709   -2734.9567    67214.724    67214.724 
    1860    2651.5993    85.343782   -2733.2767    68699.551    68699.551 
    1870    2545.3469    81.923964   -2729.8539    68037.085    68037.085 
    1880    2521.6497    81.161251   -2729.0928    64381.055    64381.055 
    1890    2527.7183    81.356577   -2729.2888    65762.044    65762.044 
    1900    2499.0333    80.433327   -2728.3673    63601.081    63601.081 
    1910    2434.9827    78.371807   -2726.2998    62252.879    62252.879 
    1920    2578.7187    82.998063   -2730.9306    63207.077    63207.077 
    1930    2762.3693       88.909   -2736.8469    62274.535    62274.535 
    1940    2758.2255    88.775628   -2736.7103    66208.372    66208.372 
    1950    2675.8095    86.123006   -2734.0546      70957.3      70957.3 
    1960    2637.5024    84.890062   -2732.8235    72056.403    72056.403 
    1970    2580.1319    83.043547   -2730.9771    74961.134    74961.134 
    1980    2533.4916    81.542393   -2729.4684    82840.417    82840.417 
    1990    2675.0308    86.097943   -2734.0357    82530.835    82530.835 
    2000    2611.5163     84.05368    -2731.988    73300.044    73300.044 
    2010    2441.6241    78.585567   -2726.5123    66357.895    66357.895 
    2020    2526.6494    81.322172   -2729.2505    64779.973    64779.973 
    2030    2758.7362    88.792067   -2736.7355    67583.124    67583.124 
    2040    2643.2132    85.073868   -2733.0058    77616.698    77616.698 
    2050    2524.6043    81.256347   -2729.1873    79157.707    79157.707 
    2060    2534.9798    81.590292   -2729.5223    71087.095    71087.095 
    2070    2585.5271    83.217196     -2731.15    64339.179    64339.179 
    2080    2635.7038    84.832173    -2732.769    58211.699    58211.699 
    2090    2568.7052     82.67577   -2730.6079    54812.943    54812.943 
    2100    2555.8779    82.262914   -2730.1943    51197.259    51197.259 
    2110    2645.4292    85.145192   -2733.0802    51254.577    51254.577 
    2120    2690.2186    86.586775   -2734.5208     57188.94     57188.94 
    2130    2690.6676    86.601223   -2734.5361    63900.679    63900.679 
    2140     2599.155    83.655822   -2731.5905    67660.997    67660.997 
    2150    2463.9455    79.303998    -2727.233    66659.306    66659.306 
    2160    2551.0029     82.10601   -2730.0355    56368.538    56368.538 
    2170    2798.5739    90.074275    -2738.015    50645.248    50645.248 
    2180    2791.7717     89.85534   -2737.7905     56855.08     56855.08 
    2190    2686.0961    86.454087   -2734.3853    64791.037    64791.037 
    2200    2657.7137    85.540578   -2733.4754    68037.922    68037.922 
    2210    2621.9039    84.388013   -2732.3175     67558.92     67558.92 
    2220    2719.6936    87.535449   -2735.4697    62290.308    62290.308 
    2230    2766.7699    89.050635   -2736.9913    55019.758    55019.758 
    2240    2531.9142    81.491624   -2729.4222    59876.754    59876.754 
    2250    2389.9488    76.922357   -2724.8482     69824.15     69824.15 
    2260    2562.5005    82.476066   -2730.4091    75107.311    75107.311 
    2270    2757.8796    88.764495   -2736.7034    75296.415    75296.415 
    2280    2730.5937    87.886277   -2735.8188    74175.841    74175.841 
    2290    2711.1229    87.259596   -2735.1899    73313.664    73313.664 
    2300    2817.4402    90.681498   -2738.6163     68007.39     68007.39 
    2310    2860.3733    92.063336   -2739.9994    65807.768    65807.768 
    2320    2776.8253    89.374279   -2737.3092    67743.613    67743.613 
    2330     2658.889    85.578407   -2733.5079    73968.104    73968.104 
    2340    2735.4939    88.043994   -2735.9749    78085.691    78085.691 
    2350    2896.2875    93.219261   -2741.1613    74731.454    74731.454 
    2360    2743.4528    88.300158   -2736.2307    71889.738    71889.738 
    2370    2628.8332    84.611037   -2732.5449    69651.999    69651.999 
    2380     2558.635    82.351654   -2730.2811    70374.107    70374.107 
    2390    2600.3825    83.695328   -2731.6285    73704.875    73704.875 
    2400    2661.2405    85.654092   -2733.5859    79996.102    79996.102 
    2410    2748.4572    88.461227   -2736.3946    80199.916    80199.916 
    2420    2812.4322    90.520312   -2738.4597     72453.74     72453.74 
    2430    2677.6426    86.182006   -2734.1134    72318.336    72318.336 
    2440    2624.3044    84.465273   -2732.3951    77548.216    77548.216 
    2450    2776.0646    89.349792   -2737.2873    78315.771    78315.771 
    2460    2840.9856    91.439327   -2739.3741    78758.532    78758.532 
    2470    2870.2968     92.38273    -2740.318    84330.133    84330.133 
    2480    2886.7053    92.910851   -2740.8476    86541.514    86541.514 
    2490    2813.8795    90.566896   -2738.5012    84232.057    84232.057 
    2500    2744.0695    88.320005   -2736.2508    82176.957    82176.957 
    2510    2825.7654    90.949454   -2738.8816    76012.618    76012.618 
    2520    2933.3342    94.411638   -2742.3543    72346.133    72346.133 
    2530    2723.0526     87.64356   -2735.5726    76900.149    76900.149 
    2540    2680.2813    86.266935   -2734.1948    82293.908    82293.908 
    2550    2886.1374    92.892574   -2740.8358     86698.94     86698.94 
    2560    2792.3511    89.873989   -2737.8104    95666.218    95666.218 
    2570    2678.1734    86.199088   -2734.1251    97608.899    97608.899 
    2580    2920.1419    93.987032   -2741.9262    90247.273    90247.273 
    2590    2994.5302    96.381279   -2744.3213    80004.661    80004.661 
    2600    2780.3916     89.48906   -2737.4207    69266.846    69266.846 
    2610    2592.4969    83.441523   -2731.3709     65903.13     65903.13 
    2620    2637.5364    84.891155   -2732.8184    72004.357    72004.357 
    2630    2886.2645    92.896664   -2740.8396    73462.849    73462.849 
    2640     2794.954    89.957764   -2737.8924    79643.859    79643.859 
    2650     2619.898     84.32345   -2732.2519    85723.678    85723.678 
    2660    2660.8655    85.642021   -2733.5754    85034.204    85034.204 
    2670    2763.4089    88.942461   -2736.8788    82122.654    82122.654 
    2680    2830.6371    91.106251   -2739.0403    83840.213    83840.213 
    2690    2932.9642     94.39973   -2742.3363     87426.79     87426.79 
    2700    2986.3167    96.116921   -2744.0533    91840.744    91840.744 
    2710    2960.2905    95.279249   -2743.2176    96570.827    96570.827 
    2720    2808.2686    90.386304   -2738.3216    95898.714    95898.714 
    2730    2681.1259     86.29412   -2734.2255    90739.987    90739.987 
    2740    2729.8676    87.862907   -2735.7967    83607.745    83607.745 
    2750    2840.5571    91.425535   -2739.3651    78479.101    78479.101 
    2760    2801.8779    90.180613    -2738.115    82106.008    82106.008 
    2770    2806.4099    90.326481   -2738.2563    85961.823    85961.823 
    2780    3011.1619    96.916584   -2744.8581    86458.699    86458.699 
    2790    2981.5789    95.964431   -2743.9048        91196        91196 
    2800    2769.3218     89.13277    -2737.062    95687.607    95687.607 
    2810    2785.4551    89.652034   -2737.5849    98920.554    98920.554 
    2820     2867.869     92.30459   -2740.2425    102421.13    102421.13 
    2830    2789.9552    89.796872    -2737.731    100639.42    100639.42 
    2840    2656.9661    85.516515   -2733.4504    92667.188    92667.188 
    2850    2554.0701    82.204729   -2730.1333    89636.752    89636.752 
    2860    2668.8551    85.899172   -2733.8316    93259.215    93259.215 
    2870    2845.1342    91.572851   -2739.5123    99702.145    99702.145 
    2880    2802.4021    90.197486   -2738.1315    104768.84    104768.84 
    2890    2779.6482    89.465135   -2737.3948    105494.84    105494.84 
    2900    2881.5199    92.743953    -2740.686    101394.39    101394.39 
    2910    2737.6304    88.112759   -2736.0436     102261.6     102261.6 
    2920    2735.8553    88.055625   -2735.9856    100686.66    100686.66 
    2930    2918.8338    93.944931   -2741.8844    98691.878    98691.878 
    2940    2896.0781     93.21252   -2741.1496    96969.529    96969.529 
    2950    2741.1903    88.227338   -2736.1582    90661.035    90661.035 
    2960    2710.0244    87.224237   -2735.1567    84113.464    84113.464 
    2970    2745.4306    88.363815   -2736.2977    79809.967    79809.967 
    2980    2808.4126    90.390938   -2738.3212    72766.464    72766.464 
    2990    2966.9398     95.49326   -2743.4355    69244.989    69244.989 
    3000    2818.7722    90.724372   -2738.6589    74478.469    74478.469 
    3010    2671.2141    85.975099   -2733.8987    86772.871    86772.871 
    3020    2902.0239     93.40389   -2741.3453    95761.727    95761.727 
    3030     2923.781    94.104159   -2742.0438    100250.24    100250.24 
    3040     2729.463    87.849885   -2735.7791    96821.834    96821.834 
    3050    2778.9862    89.443829   -2737.3734    89680.956    89680.956 
    3060    3005.6676    96.739744   -2744.6837    85240.891    85240.891 
    3070    2862.1671     92.12107   -2740.0578    89094.871    89094.871 
    3080    2697.5966    86.824239   -2734.7486    92075.877    92075.877 
    3090    2944.0542    94.756671   -2742.6977    92153.588    92153.588 
    3100    3015.6976    97.062568   -2745.0027    97412.167    97412.167 
    3110    2896.4792     93.22543    -2741.157    103415.06    103415.06 
    3120    2969.6985    95.582052   -2743.5138    100010.97    100010.97 
    3130    3161.1858    101.74522   -2749.6898    91831.979    91831.979 
    3140    2987.4646    96.153868    -2744.089    89108.871    89108.871 
    3150    2754.1265    88.643699    -2736.571    90658.047    90658.047 
    3160    2828.7961    91.046999   -2738.9804    91140.207    91140.207 
    3170    3031.4839    97.570663     -2745.51    92820.067    92820.067 
    3180    3097.5916     99.69839   -2747.6406    92954.241    92954.241 
    3190    2943.4635    94.737658    -2742.671    93138.907    93138.907 
    3200    2913.2778    93.766108   -2741.6972     93660.36     93660.36 
    3210    3045.2112    98.012487   -2745.9558    94720.104    94720.104 
    3220    2934.5984    94.452327   -2742.3866     96026.63     96026.63 
    3230    2838.0829      91.3459   -2739.2809    90045.702    90045.702 
    3240    2802.1176    90.188328   -2738.1238    84672.247    84672.247 
    3250    2779.3665    89.456068   -2737.3902    85918.037    85918.037 
    3260    2777.3938    89.392575   -2737.3292    90544.281    90544.281 
    3270    2745.0441    88.351375    -2736.282    90878.056    90878.056 
    3280    2889.1569    92.989757   -2740.9269    88122.943    88122.943 
    3290     2967.475    95.510485   -2743.4516     90080.69     90080.69 
    3300    2845.9345    91.598611   -2739.5297    94411.466    94411.466 
    3310    2905.7302    93.523181   -2741.4569    95213.539    95213.539 
    3320    3053.7414    98.287036     -2746.23    95432.805    95432.805 
    3330    2966.6914    95.485266     -2743.42    96090.145    96090.145 
    3340    2901.4141    93.384266    -2741.318    91285.518    91285.518 
    3350    2946.5885    94.838239    -2742.775    91877.281    91877.281 
    3360    3023.5497    97.315293   -2745.2527    94893.835    94893.835 
    3370         3021     97.23323   -2745.1764    96343.181    96343.181 
    3380    2842.5995    91.491273   -2739.4175    94885.014    94885.014 
    3390    2961.7532    95.326325   -2743.2668    86058.858    86058.858 
    3400    2896.1015    93.213274   -2741.1528    79106.178    79106.178 
    3410    2676.6996    86.151654   -2734.0745    78139.973    78139.973 
    3420    2880.9973    92.727133   -2740.6655    77444.856    77444.856 
    3430    2963.3204    95.376767   -2743.3181    84223.851    84223.851 
    3440    2817.6175    90.687206   -2738.6146    90555.025    90555.025 
    3450    2953.3102    95.054582   -2742.9896    84840.565    84840.565 
    3460    3082.2221    99.203712   -2747.1473    77619.048    77619.048 
    3470    2852.2053    91.800441   -2739.7317    80767.664    80767.664 
    3480    2731.9073    87.928558   -2735.8549    81632.297    81632.297 
    3490    2940.4216    94.639752   -2742.5787    78547.765    78547.765 
    3500     2992.827    96.326461   -2744.2667    80240.448    80240.448 
    3510    2836.3515    91.290176    -2739.222    78626.916    78626.916 
    3520    2792.0539    89.864421   -2737.7996    74496.294    74496.294 
    3530    2781.0533    89.510359   -2737.4458    76534.693    76534.693 
    3540    2776.5485    89.365369   -2737.2946    79528.701    79528.701 
    3550    2954.3595    95.088355   -2743.0257    79751.384    79751.384 
    3560     2996.196    96.434894   -2744.3783    80712.377    80712.377 
    3570    2798.4688    90.070891   -2737.9949    81054.262    81054.262 
    3580    2997.7736    96.485669   -2744.4262    75856.573    75856.573 
    3590    3055.3239    98.337972   -2746.2806    79234.682    79234.682 
    3600    2839.3654     91.38718   -2739.3154    85154.731    85154.731 
    3610    2850.2589    91.737796   -2739.6714    85006.066    85006.066 
    3620     2940.953    94.656855   -2742.5923    83778.121    83778.121 
    3630    2983.1798    96.015956   -2743.9536    83710.097    83710.097 
    3640    2941.5955    94.677533   -2742.6108    82079.472    82079.472 
    3650     2980.595    95.932763   -2743.8699    86655.786    86655.786 
    3660    2972.8033     95.68198   -2743.6235    98134.754    98134.754 
    3670    2805.2079    90.287793   -2738.2169    103807.65    103807.65 
    3680    2862.3024    92.125425   -2740.0615    91911.415    91911.415 
    3690    2900.6421    93.359417   -2741.2971    78597.632    78597.632 
    3700    2849.4593     91.71206   -2739.6415    77117.172    77117.172 
    3710    3013.8966    97.004601   -2744.9433    77357.038    77357.038 
    3720    3041.0967    97.880056   -2745.8248    80421.503    80421.503 
    3730     2750.898    88.539787   -2736.4654     89286.92     89286.92 
    3740    2796.1659    89.996771   -2737.9271    92573.125    92573.125 
    3750    3076.0836    99.006137    -2746.947    85258.775    85258.775 
    3760    3118.8258    100.38183   -2748.3191     77642.66     77642.66 
    3770    3042.0081     97.90939   -2745.8409    75613.695    75613.695 
    3780    3102.3219    99.850639   -2747.7856    76838.708    76838.708 
    3790    3170.5782    102.04752   -2749.9883    82273.696    82273.696 
    3800    3046.4571    98.052586   -2745.9899    90694.305    90694.305 
    3810    2892.1386    93.085725   -2741.0154    93542.812    93542.812 
    3820    3000.1723    96.562875   -2744.5019    94229.166    94229.166 
    3830     3030.288    97.532171   -2745.4743    95549.487    95549.487 
    3840    2856.5609    91.940629   -2739.8715     93686.76     93686.76 
    3850    2890.7811    93.042033   -2740.9775    86207.972    86207.972 
    3860    2994.5348    96.381425   -2744.3224    79901.487    79901.487 
    3870    3022.7047    97.288096    -2745.225    83413.207    83413.207 
    3880     3101.639    99.828659   -2747.7696    89681.433    89681.433 
    3890    3055.1561    98.332571   -2746.2727    91229.722    91229.722 
    3900    2944.1237    94.758907   -2742.6912    90313.784    90313.784 
    3910    2994.4868    96.379881   -2744.3219     86340.56     86340.56 
    3920    2921.9733    94.045979   -2741.9838    84069.616    84069.616 
    3930    2861.7441    92.107455    -2740.043    84077.409    84077.409 
    3940    2945.7758     94.81208   -2742.7517    87002.839    87002.839 
    3950     3033.011    97.619812   -2745.5589    89542.779    89542.779 
    3960    3078.8474    99.095094   -2747.0341    89930.198    89930.198 
    3970       3052.8    98.256737   -2746.1978    88626.575    88626.575 
    3980    2907.6927    93.586347   -2741.5188     89815.58     89815.58 
    3990     2906.059    93.533764   -2741.4727     93558.35     93558.35 
    4000    2902.1205    93.407002   -2741.3419    96996.697    96996.697 
    4010    2988.9436     96.20147   -2744.1363    95177.202    95177.202 
    4020    3167.3341    101.94311   -2749.8836    94595.424    94595.424 
    4030    3218.0987      103.577   -2751.5145    98759.831    98759.831 
    4040    3206.5179    103.20427   -2751.1429    101186.58    101186.58 
    4050    3125.4072    100.59366   -2748.5301    94713.946    94713.946 
    4060    3038.5929    97.799471   -2745.7345    86857.874    86857.874 
    4070    3052.7801    98.256098   -2746.1893    81706.425    81706.425 
    4080    3176.6141    102.24179   -2750.1852    76793.633    76793.633 
    4090    3102.9245    99.870033   -2747.8028    74051.237    74051.237 
    4100    3170.8029    102.05475   -2749.9901    74248.423    74248.423 
    4110    3282.9676    105.66486   -2753.6113    80679.323    80679.323 
    4120    2995.4779    96.411781   -2744.3477    95265.298    95265.298 
    4130    2742.9441    88.283784   -2736.2073    103932.17    103932.17 
    4140    2972.9328    95.686149   -2743.6285    98914.876    98914.876 
    4150    2959.4576     95.25244   -2743.1975    91271.753    91271.753 
    4160    2632.7515    84.737151   -2732.6604    92138.916    92138.916 
    4170    2780.7902    89.501892   -2737.4373    98424.567    98424.567 
    4180     2998.913    96.522341   -2744.4669    105595.84    105595.84 
    4190    2910.8293    93.687301     -2741.62    112104.16    112104.16 
    4200     2932.348    94.379895   -2742.3131    106317.61    106317.61 
    4210    3079.6598    99.121241   -2747.0625    91746.499    91746.499 
    4220    3067.6623    98.735093   -2746.6707    83096.417    83096.417 
    4230    3083.6769    99.250536   -2747.1848     79845.34     79845.34 
    4240    3169.8287     102.0234   -2749.9653    80964.762    80964.762 
    4250    3029.5527    97.508504   -2745.4447    91421.323    91421.323 
    4260    2899.3445    93.317652   -2741.2464    94708.914    94708.914 
    4270    3059.6118    98.475981    -2746.414    87215.214    87215.214 
    4280    3161.1425    101.74383   -2749.6854      78134.3      78134.3 
    4290    3063.7093    98.607861    -2746.543    75911.036    75911.036 
    4300    3091.8917    99.514934   -2747.4477    77294.683    77294.683 
    4310    3329.7578    107.17084    -2755.114    79940.011    79940.011 
    4320    3360.1114    108.14779   -2756.0951    89818.135    89818.135 
    4330    2988.2252    96.178347   -2744.1171    104013.27    104013.27 
    4340    2666.9965    85.839354   -2733.7636    109382.83    109382.83 
    4350    2934.4961    94.449033     -2742.39    103511.79    103511.79 
    4360    3135.6289    100.92265   -2748.8728    96817.745    96817.745 
    4370    2903.4243    93.448963   -2741.3804    100496.76    100496.76 
    4380    2894.1108    93.149204   -2741.0848    105557.08    105557.08 
    4390    2999.7791    96.550218   -2744.4958    103030.75    103030.75 
    4400    2863.0491    92.149457   -2740.0823    96968.609    96968.609 
    4410    2911.8064    93.718748   -2741.6542    90754.356    90754.356 
    4420    3112.3947    100.17484   -2748.1161    85083.533    85083.533 
    4430    3181.4243    102.39661   -2750.3372    88644.831    88644.831 
    4440    3105.6065    99.956356   -2747.8915    96473.725    96473.725 
    4450    3100.1593    99.781034    -2747.715    98749.533    98749.533 
    4460    3150.3448    101.39629   -2749.3393    96504.442    96504.442 
    4470    2964.1131    95.402282   -2743.3377    96330.247    96330.247 
    4480     2827.968    91.020345   -2738.9501    97885.834    97885.834 
    4490    2944.7311    94.778455   -2742.7193    94343.322    94343.322 
    4500     2942.008    94.690812    -2742.626    90022.999    90022.999 
    4510    3008.3229    96.825206   -2744.7582     92529.52     92529.52 
    4520    3185.8961    102.54054   -2750.4874    97486.649    97486.649 
    4530    3038.2854    97.789574   -2745.7253    97627.566    97627.566 
    4540     2933.493    94.416749    -2742.351    94296.065    94296.065 
    4550    2969.6507    95.580513   -2743.5208    93939.806    93939.806 
    4560    2966.7536    95.487268   -2743.4246    89051.453    89051.453 
    4570    2943.0377    94.723952   -2742.6642    83210.787    83210.787 
    4580    2867.9713    92.307881   -2740.2407    84821.557    84821.557 
    4590     2949.375    94.927924   -2742.8674    91250.353    91250.353 
    4600    2976.2213    95.791994   -2743.7307    96238.295    96238.295 
    4610     2979.026    95.882265   -2743.8183    96516.941    96516.941 
    4620    3044.3398     97.98444   -2745.9242    98700.211    98700.211 
    4630    3054.9506    98.325955   -2746.2651    96089.004    96089.004 
    4640    3048.4598    98.117046   -2746.0525    93906.979    93906.979 
    4650    3185.0362    102.51286   -2750.4484    92263.536    92263.536 
    4660    3343.9368     107.6272   -2755.5771    87302.802    87302.802 
    4670    3079.1023    99.103297   -2747.0358    90263.435    90263.435 
    4680    2995.3469    96.407565   -2744.3398    92691.346    92691.346 
    4690    3177.8761    102.28241    -2750.226    91342.838    91342.838 
    4700    3152.9101    101.47886   -2749.4188    92170.962    92170.962 
    4710    2994.7015    96.386793   -2744.3227    93109.696    93109.696 
    4720    2914.9951     93.82138   -2741.7549    96730.298    96730.298 
    4730    3047.8373    98.097008   -2746.0362    95166.414    95166.414 
    4740    3186.0208    102.54455   -2750.4883    98272.315    98272.315 
    4750    3144.0765    101.19454    -2749.132     112073.5     112073.5 
    4760    3135.7276    100.92583   -2748.8654    120444.41    120444.41 
    4770    3088.5719    99.408085   -2747.3494     116790.9     116790.9 
    4780    2964.1208    95.402529   -2743.3341     110265.4     110265.4 
    4790     3093.452    99.565155   -2747.5022    103044.07    103044.07 
    4800     3259.457    104.90815   -2752.8523    101754.43    101754.43 
    4810    3153.1954    101.48804   -2749.4282    109235.97    109235.97 
    4820    2961.2664    95.310658   -2743.2413    119220.77    119220.77 
    4830    2995.9151    96.425852   -2744.3678    120847.08    120847.08 
    4840     2920.439    93.996597   -2741.9376    115064.55    115064.55 
    4850     2774.985    89.315048    -2737.245    109875.21    109875.21 
    4860    2974.2274    95.727816   -2743.6668    107626.75    107626.75 
    4870    3197.6293    102.91818   -2750.8632    110448.36    110448.36 
    4880    3182.8335    102.44197   -2750.3831    113641.48    113641.48 
    4890    3066.7098    98.704435   -2746.6428    110147.86    110147.86 
    4900    2967.4932    95.511072   -2743.4445    106734.79    106734.79 
    4910    3040.3941    97.857445    -2745.794     100529.9     100529.9 
    4920    3140.8049    101.08924   -2749.0324    97602.296    97602.296 
    4930    3051.4128    98.212089   -2746.1495    103350.25    103350.25 
    4940    3014.6275    97.028127   -2744.9601    104260.77    104260.77 
    4950    3168.0743    101.96693   -2749.9122    94019.904    94019.904 
    4960    3072.5334    98.891871    -2746.829    90197.385    90197.385 
    4970    2992.1462    96.304548   -2744.2364    86732.405    86732.405 
    4980    3128.0266    100.67796   -2748.6207    82966.258    82966.258 
    4990    3110.3423    100.10878   -2748.0476    88276.704    88276.704 
    5000    3025.6427    97.382659   -2745.3221    102725.64    102725.64 
    5010    2953.9763     95.07602   -2743.0123    114081.16    114081.16 
    5020     2998.604    96.512398    -2744.453    108649.81    108649.81 
    5030       3045.2    98.012125   -2745.9498    97229.804    97229.804 
    5040    3147.7737    101.31354   -2749.2545    92283.802    92283.802 
    5050     3204.298    103.13282   -2751.0773    98079.052    98079.052 
    5060    3089.8958    99.450693   -2747.3868    102657.03    102657.03 
    5070     3114.968    100.25766   -2748.1958    97955.826    97955.826 
    5080    3202.9668    103.08997   -2751.0361    93929.067    93929.067 
    5090    3029.7245    97.514035   -2745.4534    94010.401    94010.401 
    5100    2881.4589    92.741991    -2740.673    92814.863    92814.863 
    5110    3025.1392    97.366451   -2745.3089     83695.82     83695.82 
    5120    3115.1287    100.26284   -2748.2023    73928.331    73928.331 
    5130    3119.6859    100.40951   -2748.3548    70583.615    70583.615 
    5140    2854.2681    91.866835   -2739.8065    77587.038    77587.038 
    5150    2681.3242    86.300499   -2734.2235    89001.628    89001.628 
    5160    3122.9452    100.51441   -2748.4615    88809.382    88809.382 
    5170    3285.1087    105.73377   -2753.6849    86319.918    86319.918 
    5180    2945.8295    94.813809   -2742.7447    94638.078    94638.078 
    5190    2915.4624     93.83642   -2741.7691    100566.13    100566.13 
    5200    3151.9196    101.44698   -2749.3958     97228.08     97228.08 
    5210    3143.9626    101.19088   -2749.1271    94151.768    94151.768 
    5220    3236.6621    104.17448   -2752.1176    92057.975    92057.975 
    5230    3236.6839    104.17518   -2752.1191    95333.264    95333.264 
    5240    3138.2459    101.00688   -2748.9439    100022.71    100022.71 
    5250     3155.184    101.55205   -2749.4949    93919.475    93919.475 
    5260    3139.0936    101.03416   -2748.9753    87447.996    87447.996 
    5270    3077.3077    99.045536   -2746.9878    87975.041    87975.041 
    5280      2974.03    95.721462   -2743.6599    94895.731    94895.731 
    5290    2970.9735    95.623088   -2743.5622    107403.43    107403.43 
    5300     3057.786    98.417216   -2746.3603    112438.17    112438.17 
    5310    3083.4332    99.242691   -2747.1844    110481.76    110481.76 
    5320    3091.2898    99.495563   -2747.4364    111752.62    111752.62 
    5330    3134.3861    100.88265   -2748.8249    107733.58    107733.58 
    5340    3145.9401    101.25452   -2749.1999     100923.6     100923.6 
    5350     3083.466    99.243747   -2747.1825    98145.061    98145.061 
    5360    3077.8526    99.063074   -2747.0074    97370.735    97370.735 
    5370    2975.1969    95.759021   -2743.6953    102199.39    102199.39 
    5380    3032.5027    97.603454   -2745.5405    102162.12    102162.12 
    5390    3183.3029    102.45707   -2750.4055    100322.88    100322.88 
    5400    3100.0802    99.778487    -2747.716    101242.91    101242.91 
    5410    3117.4324    100.33698   -2748.2785    99628.708    99628.708 
    5420    3181.7394    102.40675    -2750.347    94476.061    94476.061 
    5430    3254.2176    104.73952   -2752.6811     91840.59     91840.59 
    5440    3222.5003    103.71867   -2751.6614    91027.395    91027.395 
    5450    3099.7657    99.768366   -2747.7045    90094.632    90094.632 
    5460    3070.7324    98.833906   -2746.7793    89996.117    89996.117 
    5470    2899.7635     93.33114   -2741.2648    93421.601    93421.601 
    5480    2969.2181    95.566588   -2743.5038    89886.448    89886.448 
    5490     3152.158    101.45465   -2749.4011    80243.244    80243.244 
    5500    3113.4499     100.2088   -2748.1475    83890.847    83890.847 
    5510    3041.9451    97.907364    -2745.849    96942.162    96942.162 
    5520    2967.8125    95.521348   -2743.4539     101939.7     101939.7 
    5530     3139.629    101.05139   -2748.9941    106565.08    106565.08 
    5540    3166.3073    101.91006    -2749.854    111186.32    111186.32 
    5550    2980.9182    95.943166   -2743.8783    110208.83    110208.83 
    5560    2957.6276    95.193541   -2743.1266    95918.122    95918.122 
    5570    3156.5303    101.59538   -2749.5386    80707.695    80707.695 
    5580    3133.8241    100.86456   -2748.8083    75433.306    75433.306 
    5590    2882.7078    92.782189   -2740.7094    91097.081    91097.081 
    5600    2981.3123    95.955851   -2743.8925    105044.04    105044.04 
    5610    3092.8278    99.545063   -2747.4885     111374.5     111374.5 
    5620    2985.0572    96.076384   -2744.0085    114750.34    114750.34 
    5630    3073.4418    98.921108   -2746.8571    108257.94    108257.94 
    5640    3209.1481    103.28892   -2751.2328    101627.15    101627.15 
    5650    3077.7616    99.060144   -2746.9967        97124        97124 
    5660    2921.9156    94.044121   -2741.9756    90116.835    90116.835 
    5670    2962.8589    95.361914   -2743.2967    87890.169    87890.169 
    5680    3050.2661     98.17518   -2746.1147    96243.684    96243.684 
    5690    3020.2687    97.209691   -2745.1446    106051.96    106051.96 
    5700    3036.9613    97.746955    -2745.686    108551.29    108551.29 
    5710    3015.4396    97.054265   -2744.9929       103658       103658 
    5720    2935.9238    94.494986   -2742.4339     102092.5     102092.5 
    5730    2873.7008    92.492292   -2740.4238    105323.29    105323.29 
    5740    3012.4997    96.959641   -2744.9037    107760.56    107760.56 
    5750    2973.0608    95.690268   -2743.6264    110178.44    110178.44 
    5760    3016.6091    97.091905    -2745.023    106099.63    106099.63 
    5770    3308.5621    106.48864   -2754.4372    93682.635    93682.635 
    5780    3224.5128    103.78345   -2751.7264    91745.579    91745.579 
    5790     2990.994    96.267463   -2744.1961    95322.671    95322.671 
    5800    3160.1572    101.71211   -2749.6534    90236.794    90236.794 
    5810    3287.2701    105.80334    -2753.747    84177.458    84177.458 
    5820     3189.703    102.66307   -2750.5983    86657.023    86657.023 
    5830     3135.143    100.90701   -2748.8473    88246.526    88246.526 
    5840    2993.1808    96.337846   -2744.2762    88838.215    88838.215 
    5850     2859.859    92.046782   -2739.9789    95191.136    95191.136 
    5860    2978.8007    95.875011   -2743.8113    102241.78    102241.78 
    5870    3153.9065    101.51093   -2749.4554    98871.927    98871.927 
    5880    3051.8039    98.224677   -2746.1616    95172.389    95172.389 
    5890    2950.3222    94.958408   -2742.8929     94595.82     94595.82 
    5900     2951.687    95.002338   -2742.9426    94109.347    94109.347 
    5910    2870.7655    92.397817   -2740.3311    96083.529    96083.529 
    5920    2914.7083    93.812148   -2741.7495    94631.196    94631.196 
    5930     2915.061    93.823502   -2741.7656    86836.076    86836.076 
    5940    2752.9558     88.60602   -2736.5344     80236.11     80236.11 
    5950    2885.3902    92.868523   -2740.8017    78143.336    78143.336 
    5960    3143.3154    101.17005   -2749.1134    81236.074    81236.074 
    5970    3085.9871     99.32489   -2747.2649    84973.215    84973.215 
    5980    2917.2138    93.892789   -2741.8193    86199.516    86199.516 
    5990    3075.8818    98.999643   -2746.9419    80058.431    80058.431 
    6000    3050.8405     98.19367   -2746.1332     78476.97     78476.97 
    6010    2895.8322    93.204608   -2741.1345    77631.398    77631.398 
    6020    2966.1165    95.466761   -2743.4041    71136.436    71136.436 
    6030    3010.0569    96.881016   -2744.8173    75261.899    75261.899 
    6040    3034.4195    97.665148    -2745.602    90029.616    90029.616 
    6050    3034.1757    97.657298   -2745.5965    93020.159    93020.159 
    6060    2932.1899    94.374808   -2742.3101    87797.453    87797.453 
    6070    2881.0237    92.727984   -2740.6629    84208.234    84208.234 
    6080    2911.0764    93.695254   -2741.6314     82995.36     82995.36 
    6090    2996.9516    96.459214   -2744.3945    87314.641    87314.641 
    6100    3131.2566    100.78192   -2748.7198    89561.117    89561.117 
    6110    3194.3602    102.81296   -2750.7565    83135.105    83135.105 
    6120    3017.4829    97.120029   -2745.0564     79265.24     79265.24 
    6130    2865.0886    92.215099    -2740.145    83973.059    83973.059 
    6140    2986.0595    96.108642   -2744.0493    91620.218    91620.218 
    6150    3006.2218    96.757581   -2744.6984    97910.772    97910.772 
    6160    2888.9693     92.98372   -2740.9192    98229.608    98229.608 
    6170    2887.9675    92.951476   -2740.8816    91703.956    91703.956 
    6180    3164.6177    101.85568   -2749.7969    85385.859    85385.859 
    6190    3266.5369    105.13602   -2753.0805    91599.576    91599.576 
    6200    3064.2973    98.626785   -2746.5586     100298.2     100298.2 
    6210    3034.0932    97.654644   -2745.5905    102217.41    102217.41 
    6220    3101.8749    99.836252   -2747.7741    99291.907    99291.907 
    6230    3159.6841    101.69689   -2749.6366    90957.713    90957.713 
    6240    3145.2514    101.23236   -2749.1713    85965.412    85965.412 
    6250    3089.2289     99.42923   -2747.3638    94326.029    94326.029 
    6260    3108.7075    100.05617   -2747.9946    103037.21    103037.21 
    6270    3052.4846    98.246586    -2746.185    101733.52    101733.52 
    6280     2913.758    93.781564   -2741.7155    95035.269    95035.269 
    6290    2872.9651     92.46861   -2740.4023    97212.391    97212.391 
    6300     2986.141    96.111266   -2744.0477    104356.46    104356.46 
    6310    3120.2578    100.42792   -2748.3726    106906.18    106906.18 
    6320    2990.2882    96.244748   -2744.1821    103521.42    103521.42 
    6330    2918.2883    93.927375   -2741.8579    102249.92    102249.92 
    6340    3133.8887    100.86664   -2748.8102    99487.767    99487.767 
    6350      3152.06     101.4515   -2749.3924    93544.032    93544.032 
    6360    3011.7876    96.936722   -2744.8718    94983.042    94983.042 
    6370    2999.1618     96.53035   -2744.4644    101696.24    101696.24 
    6380    3101.7546    99.832378   -2747.7765    101160.27    101160.27 
    6390    3012.5692    96.961879   -2744.8969    98411.184    98411.184 
    6400    2999.1579    96.530224   -2744.4702    91993.961    91993.961 
    6410    2992.6812    96.321766   -2744.2614    80430.706    80430.706 
    6420    2982.6227    95.998028   -2743.9351    73630.295    73630.295 
    6430    3021.3247    97.243682   -2745.1844    79256.814    79256.814 
    6440    3017.5314    97.121589   -2745.0561     89847.66     89847.66 
    6450    3105.1931     99.94305   -2747.8862    96008.655    96008.655 
    6460     2977.967     95.84818   -2743.7899    101349.13    101349.13 
    6470    2722.5901    87.628675   -2735.5561    105890.93    105890.93 
    6480    2883.4251    92.805276   -2740.7445    97527.018    97527.018 
    6490    3034.0568    97.653472   -2745.6008    84734.202    84734.202 
    6500    2826.3774    90.969149      -2738.9     82251.76     82251.76 
    6510    2877.1596    92.603613   -2740.5338    82568.701    82568.701 
    6520    3219.7846    103.63126   -2751.5764    77723.623    77723.623 
    6530    3282.9181    105.66327   -2753.6074    86387.386    86387.386 
    6540    3093.9535    99.581294    -2747.517    100441.23    100441.23 
    6550    3000.4755    96.572634   -2744.5082     102737.5     102737.5 
    6560    3040.0591    97.846662   -2745.7857    96568.427    96568.427 
    6570    3061.8082    98.546674   -2746.4884    89575.976    89575.976 
    6580    2956.3269    95.151676   -2743.0923    91926.836    91926.836 
    6590     2823.426    90.874158   -2738.8047    103997.45    103997.45 
    6600    3007.0184     96.78322   -2744.7243    105604.29    105604.29 
    6610    3097.2071    99.686014   -2747.6324    104320.38    104320.38 
    6620    2896.4002    93.222888   -2741.1544    103245.38    103245.38 
    6630    2951.4969    94.996219   -2742.9335    96631.345    96631.345 
    6640    3086.2832    99.334418   -2747.2805     87006.11     87006.11 
    6650     2985.232     96.08201   -2744.0195    82310.384    82310.384 
    6660    2946.8543    94.846793   -2742.7806    83827.443    83827.443 
    6670     3098.529    99.728562   -2747.6677    94464.053    94464.053 
    6680    3147.2141    101.29553   -2749.2403    105015.51    105015.51 
    6690    2943.6825    94.744707   -2742.6755    107528.28    107528.28 
    6700    2990.2982     96.24507   -2744.1803    103439.41    103439.41 
    6710    3155.0019    101.54618   -2749.4938    100807.29    100807.29 
    6720    3024.8734    97.357899   -2745.2949    109162.33    109162.33 
    6730    2914.7451    93.813332   -2741.7509    115760.73    115760.73 
    6740    2887.9441    92.950721   -2740.8863    116595.65    116595.65 
    6750    2977.4155    95.830429   -2743.7708    112671.48    112671.48 
    6760    3045.1106    98.009247   -2745.9507    107532.91    107532.91 
    6770    3072.5507     98.89243    -2746.833    105617.82    105617.82 
    6780    3142.9941     101.1597   -2749.0988    108954.61    108954.61 
    6790     3274.604    105.39567   -2753.3402    114250.67    114250.67 
    6800    3247.9707    104.53846   -2752.4815    112701.75    112701.75 
    6810    3034.6627    97.672975   -2745.6136    109193.26    109193.26 
    6820    2878.4006    92.643558   -2740.5699    103586.22    103586.22 
    6830    3200.9898    103.02634   -2750.9751    99838.985    99838.985 
    6840     3221.631    103.69069   -2751.6407    106552.06    106552.06 
    6850    2852.9457    91.824272   -2739.7541    119199.04    119199.04 
    6860    2881.4107    92.740438   -2740.6749    117185.99    117185.99 
    6870    3140.6689    101.08487   -2749.0336    106037.76    106037.76 
    6880    3017.5843    97.123293    -2745.064    100676.23    100676.23 
    6890    2788.7566    89.758295    -2737.685    98826.252    98826.252 
    6900    3003.2663    96.662457   -2744.6022    90276.105    90276.105 
    6910    3232.1459    104.02912   -2751.9747     82509.88     82509.88 
    6920    3197.5776    102.91652   -2750.8599    82036.713    82036.713 
    6930    3023.6143    97.317373   -2745.2507    84995.564    84995.564 
    6940    3054.3542    98.306761   -2746.2466    85678.176    85678.176 
    6950    3051.2526    98.206933   -2746.1463    89176.444    89176.444 
    6960    2980.3967    95.926379   -2743.8568    93814.581    93814.581 
    6970    3113.2047    100.20091   -2748.1401    95046.601    95046.601 
    6980    3131.8473    100.80094   -2748.7438    99562.828    99562.828 
    6990    2961.1218    95.306002   -2743.2394    105060.81    105060.81 
    7000    2953.8817    95.072975     -2743.01    95233.494    95233.494 
    7010    2982.7404    96.001815   -2743.9427     85629.92     85629.92 
    7020    2891.7374    93.072814   -2741.0046     80592.14     80592.14 
    7030    2973.1138    95.691976   -2743.6277    75083.776    75083.776 
    7040    3088.0085     99.38995    -2747.333    79434.796    79434.796 
    7050    3012.3973    96.956346   -2744.8922    84876.113    84876.113 
    7060    3033.8738    97.647582   -2745.5807    82960.624    82960.624 
    7070    3271.0041    105.27981   -2753.2263    75709.869    75709.869 
    7080    3211.6478    103.36938   -2751.3149    69353.544    69353.544 
    7090    2852.8312    91.820587   -2739.7526     68640.56     68640.56 
    7100    2768.1183    89.094037   -2737.0261    74625.626    74625.626 
    7110    3008.3699    96.826721   -2744.7685    80792.266    80792.266 
    7120    3169.1819    102.00258   -2749.9487    84734.444    84734.444 
    7130    3076.2472    99.011404   -2746.9497    90157.184    90157.184 
    7140    3059.2552    98.464501   -2746.3994    94952.587    94952.587 
    7150    3174.6978    102.18011   -2750.1301    94784.212    94784.212 
    7160    2982.7282    96.001421   -2743.9359    96227.659    96227.659 
    7170    2930.3108    94.314328    -2742.252    96887.771    96887.771 
    7180    3040.0918    97.847714   -2745.7881    101157.84    101157.84 
    7190    3127.8088    100.67095   -2748.6135    104572.75    104572.75 
    7200    3126.4269    100.62648   -2748.5695    107331.24    107331.24 
    7210    3037.0774    97.750693   -2745.6902    104803.61    104803.61 
    7220    3029.0174    97.491274   -2745.4275    101895.49    101895.49 
    7230    3188.6157    102.62807   -2750.5703    100648.72    100648.72 
    7240    3226.4424    103.84555   -2751.7888     100671.2     100671.2 
    7250     3147.498    101.30467   -2749.2388    102753.35    102753.35 
    7260    3231.4377    104.00633   -2751.9487    97114.015    97114.015 
    7270    3250.1117    104.60737   -2752.5485    88053.546    88053.546 
    7280    3184.5197    102.49624    -2750.437    78785.243    78785.243 
    7290    3104.1869    99.910664   -2747.8468    77084.266    77084.266 
    7300    3132.6012     100.8252   -2748.7646    84750.561    84750.561 
    7310    3159.6905    101.69709   -2749.6352    97894.457    97894.457 
    7320    3152.1652    101.45488   -2749.3996    117653.37    117653.37 
    7330    2964.6911    95.420885   -2743.3546    129281.46    129281.46 
    7340    2993.5291    96.349058   -2744.2857    122041.07    122041.07 
    7350    3141.9623    101.12649   -2749.0693    105042.86    105042.86 
    7360    3132.9541    100.83656   -2748.7748    97466.537    97466.537 
    7370    3145.2103    101.23103   -2749.1678    101660.94    101660.94 
    7380    3205.2019    103.16191   -2751.1068    104666.85    104666.85 
    7390    3070.1739     98.81593   -2746.7511       100776       100776 
    7400    3060.5165      98.5051   -2746.4424    92164.043    92164.043 
    7410    3118.2597    100.36361   -2748.3075    84853.438    84853.438 
    7420      3031.54    97.572468   -2745.5068    84982.206    84982.206 
    7430    3072.0484    98.876263   -2746.8155    90360.638    90360.638 
    7440     3070.167    98.815708   -2746.7564    96650.438    96650.438 
    7450    2948.8661    94.911546   -2742.8474    101027.57    101027.57 
    7460    2917.7013     93.90848   -2741.8407    98038.774    98038.774 
    7470      3119.79    100.41286   -2748.3552    84707.889    84707.889 
    7480    3132.4889    100.82159   -2748.7684    77132.243    77132.243 
    7490    2860.2063    92.057961   -2739.9853    83698.807    83698.807 
    7500    2954.6508    95.097728   -2743.0381    90024.689    90024.689 
    7510    3039.3778    97.824732   -2745.7655    93668.836    93668.836 
    7520    3035.2272    97.691142   -2745.6243    97233.742    97233.742 
    7530    3186.1714     102.5494   -2750.4933    94236.042    94236.042 
    7540    3146.2014    101.26293    -2749.202    90593.458    90593.458 
    7550    3056.2512    98.367817   -2746.3021    85226.273    85226.273 
    7560    3134.9042    100.89933   -2748.8395    80656.019    80656.019 
    7570    3167.0827    101.93502   -2749.8777    86248.853    86248.853 
    7580    3066.4248    98.695261   -2746.6332    92229.859    92229.859 
    7590    3022.9107    97.294726   -2745.2313    94437.652    94437.652 
    7600    3033.9054      97.6486   -2745.5896     96759.28     96759.28 
    7610    2961.7521    95.326291   -2743.2622    99001.794    99001.794 
    7620    3005.5607    96.736303   -2744.6737    95418.204    95418.204 
    7630    3128.0509    100.67875   -2748.6183     89733.33     89733.33 
    7640    3232.4648    104.03939   -2751.9793    88702.919    88702.919 
    7650    3222.9059    103.73173   -2751.6779    89372.904    89372.904 
    7660    2968.0502    95.528999   -2743.4599    85299.531    85299.531 
    7670    2958.5921    95.224584   -2743.1635    80403.154    80403.154 
    7680    3048.9338      98.1323   -2746.0687    82090.934    82090.934 
    7690    3174.9808    102.18922   -2750.1352    83244.603    83244.603 
    7700    3067.1123     98.71739   -2746.6525    84139.674    84139.674 
    7710    3079.1983    99.106388    -2747.041    85774.412    85774.412 
    7720    3216.3191    103.51973   -2751.4655    85883.848    85883.848 
    7730    3121.6003    100.47113   -2748.4053    91754.496    91754.496 
    7740    3164.5679    101.85407   -2749.7952     95306.53     95306.53 
    7750    3161.8073    101.76522   -2749.7071    90756.152    90756.152 
    7760     3082.354    99.207956   -2747.1444     89121.73     89121.73 
    7770    3091.0229     99.48697   -2747.4273    89523.683    89523.683 
    7780     3064.078    98.619728    -2746.558    91667.735    91667.735 
    7790    3040.2509    97.852835   -2745.7928    91855.911    91855.911 
    7800     2947.523    94.868314   -2742.8078    94172.915    94172.915 
    7810    2800.2909    90.129534   -2738.0638    96080.402    96080.402 
    7820     2828.011     91.02173   -2738.9567    94289.589    94289.589 
    7830    3031.1015    97.558353   -2745.4994    90031.078    90031.078 
    7840    3161.3941    101.75192   -2749.6929    85829.344    85829.344 
    7850    3192.6517    102.75797   -2750.6979    88868.004    88868.004 
    7860    3139.4835    101.04671   -2748.9845    92536.525    92536.525 
    7870    3112.7007    100.18469   -2748.1198    89001.659    89001.659 
    7880    3160.8418    101.73415   -2749.6792     78971.51     78971.51 
    7890      3022.55    97.283117   -2745.2178    82963.276    82963.276 
    7900    3004.1583    96.691166   -2744.6317    96206.444    96206.444 
    7910    2995.0444    96.397829   -2744.3364    107943.86    107943.86 
    7920     2995.632    96.416741   -2744.3569    112201.76    112201.76 
    7930    2948.8502    94.911031   -2742.8526    110006.77    110006.77 
    7940    2869.4194    92.354491   -2740.2879    105464.79    105464.79 
    7950    3020.9186     97.23061   -2745.1708    94440.276    94440.276 
    7960    3148.7019    101.34342   -2749.2887    83735.894    83735.894 
    7970    3052.3979    98.243795   -2746.1809    82306.315    82306.315 
    7980    3007.3371    96.793479   -2744.7298    89185.276    89185.276 
    7990    3137.2391    100.97448   -2748.9105     95875.86     95875.86 
    8000    3356.7203    108.03865   -2755.9879    99534.166    99534.166 
    8010     3228.131     103.8999   -2751.8397    100611.33    100611.33 
    8020     3114.028    100.22741   -2748.1595    96720.608    96720.608 
    8030     3281.992    105.63346   -2753.5833    93036.997    93036.997 
    8040    3123.8648    100.54401   -2748.4869    102359.27    102359.27 
    8050      2932.78    94.393801   -2742.3246    110781.04    110781.04 
    8060    3089.9333    99.451903   -2747.4019    106457.62    106457.62 
    8070    3024.3818    97.342074   -2745.2776     105080.2     105080.2 
    8080    3160.6217    101.72706   -2749.6647    100321.14    100321.14 
    8090     3418.114    110.01465   -2757.9695    91074.688    91074.688 
    8100    3143.4715    101.17507    -2749.115    95462.878    95462.878 
    8110    2884.6979     92.84624   -2740.7727    102505.81    102505.81 
    8120    3139.6808    101.05306   -2748.9958    98622.854    98622.854 
    8130     3241.816    104.34036   -2752.2918    94002.342    94002.342 
    8140    2863.0085    92.148151   -2740.0794    89311.301    89311.301 
    8150    2783.4789    89.588427   -2737.5148    83458.544    83458.544 
    8160    3164.0365    101.83697   -2749.7884    79161.051    79161.051 
    8170     3075.911    99.000584   -2746.9433     84332.24     84332.24 
    8180    2843.6179    91.524049   -2739.4506    87493.316    87493.316 
    8190    3104.9041    99.933747   -2747.8767    80082.234    80082.234 
    8200    3278.2159    105.51192   -2753.4585    71712.178    71712.178 
    8210    3148.9924    101.35277   -2749.2894    73391.066    73391.066 
    8220    3042.9843    97.940811   -2745.8763    82433.598    82433.598 
    8230    3027.1892    97.432435   -2745.3723    91923.788    91923.788 
    8240    2942.4129    94.703843   -2742.6406     89868.75     89868.75 
    8250    2887.0688    92.922549   -2740.8576    82786.499    82786.499 
    8260    2984.9819    96.073959     -2744.01    83888.368    83888.368 
    8270    3218.5264    103.59077   -2751.5321    83936.942    83936.942 
    8280    3337.7331    107.42753   -2755.3735    81124.291    81124.291 
    8290    3186.0775    102.54638   -2750.4839    82193.376    82193.376 
    8300    3086.7699    99.350086   -2747.2852    85763.026    85763.026 
    8310    3140.4488    101.07778   -2749.0166    87729.632    87729.632 
    8320    3168.3026    101.97428   -2749.9141    89514.324    89514.324 
    8330    3135.0734    100.90477   -2748.8404      88685.2      88685.2 
    8340    3132.3732    100.81786   -2748.7608     82237.22     82237.22 
    8350    3001.2858    96.598714   -2744.5335    82490.262    82490.262 
    8360    3027.2651    97.434878    -2745.371    87243.088    87243.088 
    8370    3163.7825    101.82879    -2749.771    88192.913    88192.913 
    8380    3139.8143    101.05736   -2748.9978    89824.457    89824.457 
    8390    3031.8819    97.583472   -2745.5194    94692.946    94692.946 
    8400    3022.0596    97.267334   -2745.2055    95444.745    95444.745 
    8410    3091.7764    99.511223   -2747.4471    96617.144    96617.144 
    8420    3243.9495    104.40903   -2752.3522    96279.238    96279.238 
    8430    3230.8739    103.98818    -2751.931    96667.503    96667.503 
    8440    3109.1318    100.06982        -2748    95284.594    95284.594 
    8450    3295.6506    106.07307   -2754.0174    89576.752    89576.752 
    8460    3251.2502    104.64401   -2752.5934    88304.271    88304.271 
    8470    2813.2504    90.546646   -2738.4718    91680.062    91680.062 
    8480    2858.8812    92.015309   -2739.9483    92408.193    92408.193 
    8490     3121.632    100.47215   -2748.4197    92046.315    92046.315 
    8500    3017.2792    97.113474   -2745.0498    94549.207    94549.207 
    8510    2959.9071    95.266906   -2743.1979    97388.239    97388.239 
    8520    3136.0247    100.93539   -2748.8797    96144.376    96144.376 
    8530    3085.6937    99.315446   -2747.2538    104867.08    104867.08 
    8540    3004.5126    96.702569   -2744.6355    106398.63    106398.63 
    8550    3066.7206    98.704784   -2746.6482    97314.746    97314.746 
    8560    3003.2418    96.661668   -2744.5933    90801.234    90801.234 
    8570    3173.3933    102.13812   -2750.0792    87104.367    87104.367 
    8580    3234.4178    104.10225   -2752.0517    85219.687    85219.687 
    8590    2920.5097    93.998872   -2741.9255    89174.312    89174.312 
    8600    3069.5781    98.796754   -2746.7304    86899.997    86899.997 
    8610    3406.4914    109.64057   -2757.5953    76276.651    76276.651 
    8620    3149.5906    101.37202   -2749.3089    80897.917    80897.917 
    8630    2941.7833    94.683579   -2742.6152    94637.232    94637.232 
    8640    3028.6445    97.479275   -2745.4236    97385.173    97385.173 
    8650    2967.0709     95.49748   -2743.4342    95420.778    95420.778 
    8660    2995.7692    96.421156   -2744.3548    89364.033    89364.033 
    8670    3196.6234     102.8858   -2750.8303    81379.665    81379.665 
    8680    3166.8307     101.9269   -2749.8655    85193.104    85193.104 
    8690    3133.9543    100.86875   -2748.8063    92649.707    92649.707 
    8700    3152.4383    101.46367   -2749.4056    95300.052    95300.052 
    8710    3100.8672    99.803818   -2747.7381    91794.895    91794.895 
    8720    3210.9283    103.34622    -2751.289    88894.941    88894.941 
    8730    3192.3918    102.74961   -2750.6905    91929.409    91929.409 
    8740    3091.4799     99.50168   -2747.4355    90828.416    90828.416 
    8750    3218.6892    103.59601    -2751.536    86754.007    86754.007 
    8760    3283.6879    105.68804   -2753.6393     96516.87     96516.87 
    8770    2980.0144    95.914077   -2743.8458     112390.3     112390.3 
    8780     2989.046    96.204766   -2744.1419    114392.99    114392.99 
    8790    3147.0183    101.28923    -2749.238    108875.52    108875.52 
    8800    2952.4576    95.027138   -2742.9674    105053.82    105053.82 
    8810    2787.0715    89.704059   -2737.6301    94371.445    94371.445 
    8820    3154.6302    101.53422   -2749.4815    77731.416    77731.416 
    8830    3302.4223    106.29102   -2754.2433    77061.183    77061.183 
    8840    3011.6398    96.931963   -2744.8649    88438.309    88438.309 
    8850    2987.1212    96.142813   -2744.0816    92000.927    92000.927 
    8860    3064.0954    98.620287   -2746.5661    91411.743    91411.743 
    8870    2956.0637    95.143205   -2743.0796    88356.732    88356.732 
    8880    2986.0836    96.109418   -2744.0439    80582.819    80582.819 
    8890    3194.5563    102.81927   -2750.7638    81197.877    81197.877 
    8900    3189.1878    102.64649   -2750.5889    96595.725    96595.725 
    8910    3062.3065    98.562712   -2746.4963    104698.97    104698.97 
    8920    3099.0558    99.745517   -2747.6941    94133.976    94133.976 
    8930    2911.1641    93.698077   -2741.6328    83118.286    83118.286 
    8940    2903.8179    93.461633   -2741.3964    84063.972    84063.972 
    8950    3141.3443     101.1066   -2749.0526     85788.39     85788.39 
    8960    3121.3309    100.46246   -2748.4049    87690.573    87690.573 
    8970    3022.0714    97.267713   -2745.1978    94668.502    94668.502 
    8980    3268.4057    105.19617   -2753.1436    96231.306    96231.306 
    8990    3268.6441    105.20385   -2753.1488    94194.574    94194.574 
    9000    3104.2893    99.913961   -2747.8434    90890.651    90890.651 
    9010    3266.1501    105.12358   -2753.0746    85271.272    85271.272 
    9020    3059.5417    98.473725   -2746.4128    92540.328    92540.328 
    9030    2842.8502    91.499339   -2739.4274     100080.4     100080.4 
    9040    3009.9015    96.876016   -2744.8228    95086.524    95086.524 
    9050    2964.3395    95.409569    -2743.343    86435.938    86435.938 
    9060    3046.8052    98.063789   -2746.0012    79507.226    79507.226 
    9070     3184.685    102.50156   -2750.4456    74434.488    74434.488 
    9080    3086.5452    99.342852    -2747.282    72537.142    72537.142 
    9090    2942.6456    94.711333   -2742.6469    80368.465    80368.465 
    9100     2993.096    96.335119   -2744.2678    95208.544    95208.544 
    9110    3255.8225    104.79117   -2752.7396     105852.8     105852.8 
    9120    3169.6205    102.01669   -2749.9595    104117.72    104117.72 
    9130     2934.782    94.458237   -2742.3876    97658.252    97658.252 
    9140    3028.0951     97.46159   -2745.4033    88964.148    88964.148 
    9150    3031.3941    97.567773   -2745.5097    87826.354    87826.354 
    9160    2894.0545     93.14739   -2741.0792    96480.114    96480.114 
    9170    3003.7237    96.677177    -2744.612    98594.578    98594.578 
    9180    3253.1163    104.70407   -2752.6502     93588.86     93588.86 
    9190    3195.0059    102.83375   -2750.7756    88988.226    88988.226 
    9200    3084.1697    99.266396   -2747.1926    84931.733    84931.733 
    9210    3378.4864    108.73921   -2756.6889    83035.119    83035.119 
    9220    3345.9773    107.69288   -2755.6335    89870.363    89870.363 
    9230    3171.4182    102.07456   -2750.0111    93664.286    93664.286 
    9240    3125.0585    100.58243   -2748.5185    91830.573    91830.573 
    9250    3206.9702    103.21882    -2751.157    92591.379    92591.379 
    9260    3309.8119    106.52887   -2754.4741    89205.357    89205.357 
    9270    3119.5713    100.40582   -2748.3466    90446.332    90446.332 
    9280    2891.2855    93.058269    -2740.987    100877.81    100877.81 
    9290    3009.1004    96.850232    -2744.795    109203.82    109203.82 
    9300    2944.1844    94.760861   -2742.7002    114248.88    114248.88 
    9310    2815.9097    90.632238   -2738.5652    115243.84    115243.84 
    9320    2911.0278    93.693689    -2741.627    112433.36    112433.36 
    9330    3189.9263    102.67025   -2750.6124    109829.44    109829.44 
    9340    3325.5441    107.03522   -2754.9786    103032.91    103032.91 
    9350    3246.4883    104.49075    -2752.431    92354.902    92354.902 
    9360    3135.3587    100.91395   -2748.8525    88571.163    88571.163 
    9370    3088.0275    99.390562   -2747.3289    87738.929    87738.929 
    9380    3088.2896    99.398999   -2747.3386     90511.27     90511.27 
    9390    3024.1089    97.333291   -2745.2755    97815.406    97815.406 
    9400    2840.4681     91.42267   -2739.3574    102356.42    102356.42 
    9410    2824.7047    90.915312   -2738.8511    99502.054    99502.054 
    9420    2981.3549    95.957222   -2743.8988    93327.956    93327.956 
    9430    3108.7659    100.05804   -2747.9968    90486.005    90486.005 
    9440    3216.4984     103.5255   -2751.4745    85670.548    85670.548 
    9450    3070.4177    98.823775   -2746.7577    86379.015    86379.015 
    9460    3101.4583    99.822842   -2747.7623    87717.744    87717.744 
    9470    3179.7622    102.34312   -2750.2856    87575.791    87575.791 
    9480    3162.2774    101.78035   -2749.7164    91099.791    91099.791 
    9490    3275.9228    105.43812   -2753.3805    91044.519    91044.519 
    9500    3310.2805    106.54395   -2754.4889    90945.312    90945.312 
    9510    3155.5017    101.56227   -2749.5038    99080.646    99080.646 
    9520    3023.2757    97.306476   -2745.2427     107671.5     107671.5 
    9530    3058.5012    98.440235   -2746.3854     107024.8     107024.8 
    9540    2989.7109    96.226166   -2744.1655    104527.09    104527.09 
    9550    2941.0464    94.659861   -2742.6016    94424.598    94424.598 
    9560     2894.626    93.165786   -2741.1022    91936.327    91936.327 
    9570    3009.2362    96.854602   -2744.7903    97021.727    97021.727 
    9580    3308.2353    106.47812   -2754.4248     94744.59     94744.59 
    9590    3359.9462    108.14248   -2756.0901    90808.554    90808.554 
    9600    3165.5335    101.88515   -2749.8207    88812.869    88812.869 
    9610    3160.0492    101.70864   -2749.6482    85728.828    85728.828 
    9620    3181.4867    102.39862   -2750.3442    87347.655    87347.655 
    9630    2975.7896    95.778099   -2743.7164    95021.772    95021.772 
    9640    2900.4544    93.353375   -2741.2837    97325.344    97325.344 
    9650     3165.613    101.88771   -2749.8414    92273.781    92273.781 
    9660    2975.4957    95.768637    -2743.709    96178.212    96178.212 
    9670    2794.6981    89.949529    -2737.877    92833.785    92833.785 
    9680    3062.5023    98.569014   -2746.5188    87401.665    87401.665 
    9690    2995.9246     96.42616    -2744.367    90749.173    90749.173 
    9700    2876.7079    92.589076   -2740.5182    89166.122    89166.122 
    9710    3130.9029    100.77054    -2748.716    82132.301    82132.301 
    9720     3212.682    103.40266    -2751.346    82530.361    82530.361 
    9730    3132.7998    100.83159   -2748.7692     88213.48     88213.48 
    9740    3158.7296    101.66616   -2749.6045     87274.68     87274.68 
    9750    3204.4885    103.13895   -2751.0845    85365.066    85365.066 
    9760     3084.218    99.267949   -2747.2036    92114.095    92114.095 
    9770    3069.7352    98.801811   -2746.7446    95855.823    95855.823 
    9780    2969.0664    95.561708   -2743.5028    94828.127    94828.127 
    9790    2852.2303    91.801244    -2739.733    95828.899    95828.899 
    9800    3026.1131    97.397797   -2745.3408     89231.29     89231.29 
    9810    3101.8269    99.834705   -2747.7815     86494.91     86494.91 
    9820    2927.8154    94.234011   -2742.1667    93603.939    93603.939 
    9830    3027.9781    97.457826   -2745.3962    100175.74    100175.74 
    9840    3195.9203    102.86318   -2750.8134    98408.019    98408.019 
    9850    3009.7856    96.872285   -2744.8071    94098.517    94098.517 
    9860    2996.8199    96.454974   -2744.3858    89258.703    89258.703 
    9870    3329.1618    107.15166   -2755.0982    86304.775    86304.775 
    9880    3395.5027    109.28689   -2757.2338    90109.854    90109.854 
    9890    3135.1061    100.90582   -2748.8358    94706.267    94706.267 
    9900    3145.0446     101.2257   -2749.1638    92112.629    92112.629 
    9910    3189.2396    102.64815   -2750.5927    92240.657    92240.657 
    9920    3012.9169     96.97307   -2744.9109    101574.71    101574.71 
    9930    2936.1065    94.500868   -2742.4345    111322.74    111322.74 
    9940    3113.5709     100.2127   -2748.1553     112587.2     112587.2 
    9950    3191.5744     102.7233     -2750.67    106979.27    106979.27 
    9960    3082.4207    99.210101   -2747.1436     103332.9     103332.9 
    9970    3184.2406    102.48726   -2750.4321    95064.532    95064.532 
    9980    3133.3716       100.85   -2748.7919    90269.239    90269.239 
    9990    3036.2661     97.72458   -2745.6539    94562.039    94562.039 
   10000    3286.7201    105.78564   -2753.7303    97174.628    97174.628 
   10010     3331.172    107.21635   -2755.1613    99659.581    99659.581 
   10020    3125.5053    100.59682   -2748.5337     107738.9     107738.9 
   10030     3056.658     98.38091   -2746.3156    108942.22    108942.22 
   10040    3178.4858    102.30203   -2750.2479    106136.62    106136.62 
   10050    3084.5902     99.27993   -2747.2195    109060.35    109060.35 
   10060    2957.7593    95.197778   -2743.1348    107243.42    107243.42 
   10070    2939.6453    94.614764   -2742.5552    101149.36    101149.36 
   10080    2921.0661    94.016778   -2741.9574     94514.54     94514.54 
   10090    2930.1275    94.308426   -2742.2456     94761.81     94761.81 
   10100    3052.3895    98.243525   -2746.1838    95348.945    95348.945 
   10110    3152.0903    101.45247   -2749.3966    93192.749    93192.749 
   10120    3078.7397    99.091625    -2747.027    91086.021    91086.021 
   10130    3121.5052    100.46807   -2748.4077     87228.03     87228.03 
   10140    3245.1947    104.44911   -2752.3873    88168.025    88168.025 
   10150    3383.1149    108.88818   -2756.8347    91558.435    91558.435 
   10160    3318.4557    106.80707   -2754.7462    95233.834    95233.834 
   10170    3184.0699    102.48176   -2750.4207    92937.866    92937.866 
   10180    3070.4451    98.824659   -2746.7598    92063.288    92063.288 
   10190    3069.4217    98.791719    -2746.732    91684.123    91684.123 
   10200    3029.3823    97.503021   -2745.4419    93220.414    93220.414 
   10210    2960.7625    95.294439   -2743.2328     95207.65     95207.65 
   10220    2948.6031    94.903078   -2742.8382    92693.519    92693.519 
   10230     3108.912    100.06274   -2748.0041    88823.509    88823.509 
   10240    3205.0809    103.15802   -2751.1024    92727.945    92727.945 
   10250    3092.5712    99.536806   -2747.4756    99950.498    99950.498 
   10260    2990.1374    96.239893   -2744.1719    100086.62    100086.62 
   10270    3141.1224    101.09946    -2749.039    95423.788    95423.788 
   10280    3223.6966    103.75718   -2751.7021     91741.66     91741.66 
   10290    3066.5559    98.699481   -2746.6336    92707.717    92707.717 
   10300    3051.8986    98.227726   -2746.1661    96938.762    96938.762 
   10310    3116.8857    100.31938   -2748.2561    105622.95    105622.95 
   10320    3227.6246     103.8836   -2751.8281     104429.3     104429.3 
   10330    3107.4341    100.01518   -2747.9557    95120.341    95120.341 
   10340    2925.9257    94.173191   -2742.0987    85461.992    85461.992 
   10350    3190.9782    102.70411    -2750.644    82371.184    82371.184 
   10360    3345.6923     107.6837   -2755.6313     90365.67     90365.67 
   10370    3102.2567    99.848539   -2747.7805    99755.663    99755.663 
   10380    3065.5769    98.667972   -2746.6017    106393.24    106393.24 
   10390     3233.485    104.07222   -2752.0139    113067.88    113067.88 
   10400    3252.9435    104.69851   -2752.6405    114060.08    114060.08 
[...]
   12500    3121.1159    100.45554   -2748.3908    116910.96    116910.96 
   12510    3116.5298    100.30793   -2748.2513    121967.08    121967.08 
   12520    3055.6887    98.349712   -2746.2874    125084.64    125084.64 
   12530     3101.501    99.824217   -2747.7626    124598.05    124598.05 
   12540    3230.3563    103.97153   -2751.9154    115808.38    115808.38 
   12550    3176.7417     102.2459   -2750.1904    112892.63    112892.63 
   12560    2945.6969     94.80954    -2742.743    114423.06    114423.06 
   12570    2980.2873     95.92286   -2743.8599    113301.16    113301.16 
   12580    3232.9362    104.05456    -2751.998    111537.31    111537.31 
   12590    3373.6415    108.58327    -2756.529    104617.07    104617.07 
   12600    3295.1642    106.05742   -2754.0019    98747.914    98747.914 
   12610    3002.4857    96.637331   -2744.5789    97908.938    97908.938 
   12620    2774.5845    89.302154   -2737.2296    101843.39    101843.39 
   12630    3041.3579    97.888465   -2745.8342    103628.17    103628.17 
   12640    3243.1597    104.38361   -2752.3281    108633.05    108633.05 
   12650    3263.7523     105.0464   -2752.9927    117801.57    117801.57 
   12660     3190.763    102.69718    -2750.634    123438.95    123438.95 
   12670    3229.4493    103.94233   -2751.8902    121888.23    121888.23 
   12680     3126.875     100.6409    -2748.576    116583.98    116583.98 
   12690    3256.0897    104.79977   -2752.7426    111907.77    111907.77 
   12700    3354.2041    107.95766   -2755.9067    108697.81    108697.81 
   12710    3253.6519    104.72131   -2752.6556    106100.04    106100.04 
   12720     3371.169    108.50369   -2756.4552    97448.019    97448.019 
   12730    3223.6841    103.75677   -2751.6981    97676.481    97676.481 
   12740    3075.2908    98.980621     -2746.92    108216.25    108216.25 
   12750     3120.237    100.42725   -2748.3669    120410.71    120410.71 
   12760    3266.0191    105.11936   -2753.0632    130321.52    130321.52 
   12770    3306.0685    106.40838   -2754.3581    126132.46    126132.46 
   12780    3106.3362    99.979842   -2747.9167    117062.89    117062.89 
   12790    3104.9447    99.935055   -2747.8742     110603.6     110603.6 
   12800    3232.5812    104.04314   -2751.9923    107643.31    107643.31 
   12810    3094.9982    99.614918   -2747.5586    113900.14    113900.14 
   12820    2943.5327    94.739885   -2742.6735    117241.58    117241.58 
   12830    3103.0751     99.87488   -2747.8226    109249.75    109249.75 
   12840    3086.2965    99.334849   -2747.2798    99690.937    99690.937 
   12850    2948.5517    94.901425   -2742.8388    94689.592    94689.592 
   12860    3026.8442    97.421329    -2745.363    93694.192    93694.192 
   12870    3247.9785    104.53871   -2752.4883    101828.19    101828.19 
   12880    3225.4844    103.81472   -2751.7636    122422.61    122422.61 
   12890    3108.2443    100.04125   -2747.9741    132241.28    132241.28 
   12900    3369.5972     108.4531   -2756.4067    126814.67    126814.67 
   12910    3338.9442    107.46651   -2755.4087     119887.5     119887.5 
   12920    3290.4715    105.90638   -2753.8483     119644.3     119644.3 
   12930    3334.0586    107.30926   -2755.2541    118203.89    118203.89 
   12940    3311.0605    106.56905   -2754.5158    118665.02    118665.02 
   12950     3200.138    102.99892   -2750.9424    120035.41    120035.41 
   12960    3163.5755    101.82213   -2749.7638    114374.42    114374.42 
   12970    3248.1639    104.54468   -2752.4875    110958.18    110958.18 
   12980    3308.4461     106.4849    -2754.432    109827.68    109827.68 
   12990    3158.9733    101.67401   -2749.6156    114473.85    114473.85 
   13000    3101.1276      99.8122   -2747.7457    121447.35    121447.35 
   13010    3399.9167    109.42896   -2757.3806    124224.42    124224.42 
   13020    3399.4418    109.41367   -2757.3634    131084.59    131084.59 
   13030    3179.4517    102.33312   -2750.2709     132540.4     132540.4 
   13040    3194.1351    102.80572   -2750.7479    123543.13    123543.13 
   13050     3351.387    107.86699   -2755.8107    115236.03    115236.03 
   13060    3404.7773     109.5854   -2757.5373    113574.14    113574.14 
   13070    3112.7433    100.18606   -2748.1221    120512.85    120512.85 
   13080     3010.186    96.885173   -2744.8236    124481.54    124481.54 
   13090    3048.5346    98.119453   -2746.0625    123954.86    123954.86 
   13100    3067.7941    98.739334   -2746.6745    118146.57    118146.57 
   13110    3304.6793    106.36367   -2754.3069    103387.88    103387.88 
   13120    3432.3822    110.47388   -2758.4253    96552.051    96552.051 
   13130    3252.4798    104.68359   -2752.6189    107967.93    107967.93 
   13140    3236.2262    104.16045   -2752.1111    119037.08    119037.08 
   13150    2978.3877    95.861719    -2743.801    126507.91    126507.91 
   13160    2830.7473    91.109797   -2739.0385    129377.22    129377.22 
   13170    3173.1306    102.12967   -2750.0751    125664.09    125664.09 
   13180    3378.6658    108.74498    -2756.691    118208.09    118208.09 
   13190    3312.6147    106.61907   -2754.5612    113109.14    113109.14 
   13200    3146.6988    101.27894   -2749.2206    110456.22    110456.22 
   13210    3050.2874    98.175868   -2746.1105    107348.69    107348.69 
   13220    3215.0518    103.47894   -2751.4273    108259.28    108259.28 
   13230    3154.5637    101.53208    -2749.475    112328.79    112328.79 
   13240    3046.1866    98.043881   -2745.9806    112104.17    112104.17 
   13250    3097.0688    99.681562   -2747.6294    106081.36    106081.36 
   13260    3015.8828     97.06853   -2745.0047     104298.5     104298.5 
   13270    3137.1642    100.97206   -2748.9143    106660.24    106660.24 
   13280    3267.7743    105.17585   -2753.1219    107542.85    107542.85 
   13290    3240.3728    104.29391   -2752.2395    115653.75    115653.75 
   13300    3124.8593    100.57602   -2748.5171    121120.16    121120.16 
   13310    3106.4001    99.981899   -2747.9232     116963.9     116963.9 
   13320    3244.7006    104.43321   -2752.3751    106765.87    106765.87 
   13330     3391.657    109.16311   -2757.1121    105425.81    105425.81 
   13340    3289.3433    105.87007   -2753.8112    112082.43    112082.43 
   13350    3190.8702    102.70063    -2750.641     116009.5     116009.5 
   13360    3141.6904    101.11774   -2749.0621    116794.52    116794.52 
   13370    3055.1168    98.331306   -2746.2676    112682.32    112682.32 
   13380    3173.1826    102.13134   -2750.0753    104556.33    104556.33 
   13390     3208.286    103.26118    -2751.206    106969.93    106969.93 
   13400    3100.5995    99.795202   -2747.7342    113138.52    113138.52 
   13410    3060.4898    98.504239   -2746.4476    116027.02    116027.02 
   13420    3014.8849     97.03641    -2744.975    112702.61    112702.61 
   13430    3085.1127    99.296747   -2747.2388    107652.63    107652.63 
   13440    3177.4247    102.26788   -2750.2122    109674.35    109674.35 
   13450    3182.5474    102.43276   -2750.3746    113733.63    113733.63 
   13460    3216.2996     103.5191   -2751.4603    112297.45    112297.45 
   13470    3283.7929    105.69142   -2753.6383    105411.08    105411.08 
   13480    3170.9822    102.06052   -2750.0006    106025.96    106025.96 
   13490    3106.6853    99.991077   -2747.9335    106826.37    106826.37 
   13500    3039.0779    97.815081   -2745.7588    107400.42    107400.42 
   13510     3009.359    96.858554   -2744.7932    114080.45    114080.45 
   13520    3231.2196    103.99931   -2751.9494    120679.11    120679.11 
   13530    3212.5743     103.3992   -2751.3402    124669.94    124669.94 
   13540    3215.3925     103.4899   -2751.4322    125772.21    125772.21 
   13550    3277.2762    105.48168   -2753.4309    127034.39    127034.39 
   13560    3178.8841    102.31485   -2750.2577    127127.98    127127.98 
   13570    3143.3254    101.17037    -2749.109    121425.05    121425.05 
   13580    3249.7921    104.59708   -2752.5452    110930.98    110930.98 
   13590    3134.0139    100.87067   -2748.8113     110178.7     110178.7 
   13600     3034.895     97.68045   -2745.6167    115707.21    115707.21 
   13610    3207.2502    103.22784   -2751.1698    116612.31    116612.31 
   13620    3398.1408     109.3718    -2757.322    114516.03    114516.03 
   13630    3332.7489    107.26711    -2755.208    109376.54    109376.54 
   13640    3301.2282    106.25259   -2754.1958    102846.52    102846.52 
   13650    3294.8333    106.04677   -2753.9885    101020.72    101020.72 
   13660    3295.5525    106.06992   -2754.0118    104004.49    104004.49 
   13670    3241.1466    104.31882   -2752.2615    109251.47    109251.47 
   13680    3144.2155    101.19902   -2749.1344    114536.12    114536.12 
   13690    3237.8418    104.21245   -2752.1575    123629.29    123629.29 
   13700     3256.672    104.81852   -2752.7618    133235.46    133235.46 
   13710    3129.7786    100.73435    -2748.683    141673.65    141673.65 
   13720     2861.313     92.09358   -2740.0238    146532.73    146532.73 
   13730    3011.7771    96.936384   -2744.8815    137677.63    137677.63 
   13740    3116.6405    100.31149   -2748.2589    125326.21    125326.21 
   13750    2990.8036    96.261334   -2744.1964    120584.95    120584.95 
   13760    3074.1651    98.944388   -2746.8794    113732.35    113732.35 
   13770    3334.8223    107.33384   -2755.2799     107389.2     107389.2 
   13780    3403.2684    109.53684   -2757.4779     109637.4     109637.4 
   13790      3408.75    109.71326   -2757.6596    112015.12    112015.12 
   13800    3229.9978    103.95999    -2751.901    116106.97    116106.97 
   13810    3115.5754    100.27721   -2748.2079    117543.97    117543.97 
   13820    3393.6451     109.2271   -2757.1765    107428.28    107428.28 
   13830    3365.5734    108.32359   -2756.2674    103022.86    103022.86 
   13840    3126.1875    100.61877   -2748.5558    109490.19    109490.19 
   13850    3051.8653    98.226654    -2746.162    113942.65    113942.65 
   13860    3179.3661    102.33037   -2750.2732    109781.65    109781.65 
   13870    3199.3076     102.9722   -2750.9193    106157.58    106157.58 
   13880    2944.3596    94.766499   -2742.7036    113427.71    113427.71 
   13890    2815.7317     90.62651   -2738.5598    120688.45    120688.45 
   13900    3004.6936    96.708396   -2744.6492    116013.38    116013.38 
   13910    3222.7845    103.72782   -2751.6733    107499.31    107499.31 
   13920    3271.8945    105.30846    -2753.253    110606.51    110606.51 
   13930    3212.0589    103.38261    -2751.325    117362.31    117362.31 
   13940    3196.2415    102.87351   -2750.8143     116495.5     116495.5 
   13950    3259.6492    104.91434   -2752.8621    104559.85    104559.85 
   13960    3169.3999     102.0096   -2749.9506    94679.775    94679.775 
   13970    3107.2929    100.01063   -2747.9522    91286.503    91286.503 
   13980    3090.7575    99.478429   -2747.4213    98248.588    98248.588 
   13990    3065.4189    98.662888   -2746.6011    112329.45    112329.45 
   14000    3173.1026    102.12877    -2750.073     122887.7     122887.7 
   14010    3248.9022    104.56844   -2752.5109    124132.27    124132.27 
   14020    3279.6756    105.55891   -2753.5034    117121.96    117121.96 
   14030    3189.1194    102.64428    -2750.589    114542.94    114542.94 
   14040    3039.6068    97.832105   -2745.7671    119489.46    119489.46 
   14050    3174.4019    102.17059   -2750.1102    120708.97    120708.97 
   14060    3414.6085    109.90182   -2757.8488    118962.09    118962.09 
   14070    3389.4508    109.09211   -2757.0385    123073.18    123073.18 
   14080    3199.7473    102.98635   -2750.9226    126214.89    126214.89 
   14090    3227.3574      103.875   -2751.8158    121451.66    121451.66 
   14100    3324.4911    107.00133   -2754.9464    113767.41    113767.41 
   14110    3286.2143    105.76936   -2753.7119    109539.53    109539.53 
   14120    3167.5332    101.94952   -2749.8885    109126.51    109126.51 
   14130    3122.0806    100.48659   -2748.4233    111566.64    111566.64 
   14140    3190.8281    102.69928   -2750.6452    113339.37    113339.37 
   14150    3074.1823    98.944943   -2746.8857    113957.16    113957.16 
   14160    3024.8063    97.355738    -2745.289     116098.3     116098.3 
   14170    3294.9433    106.05031   -2753.9987    114152.44    114152.44 
   14180    3315.9811    106.72742    -2754.672    108798.85    108798.85 
   14190    3170.8314    102.05567   -2749.9966    108138.29    108138.29 
   14200    3078.7945    99.093391   -2747.0294    112374.04    112374.04 
   14210    3210.4705    103.33148   -2751.2747     117327.2     117327.2 
   14220    3288.7056    105.84954   -2753.7968    115415.58    115415.58 
   14230    3173.8885    102.15407   -2750.0929    109563.97    109563.97 
   14240    3115.6295    100.27895   -2748.2241    111064.74    111064.74 
   14250    2938.1186    94.565628    -2742.504    116052.05    116052.05 
   14260    2900.5459    93.356321   -2741.2915    114694.14    114694.14 
   14270    3075.4928    98.987122    -2746.932    113844.53    113844.53 
   14280    3109.8194    100.09195    -2748.032    113710.73    113710.73 
   14290    3098.6149    99.731326   -2747.6723    107665.33    107665.33 
   14300    3076.8014    99.029241    -2746.968    104110.46    104110.46 
   14310    3077.3295     99.04624   -2746.9879     104779.8     104779.8 
   14320    3077.2823     99.04472   -2746.9795    104108.88    104108.88 
   14330     3229.387    103.94033   -2751.8855    99817.259    99817.259 
   14340    3184.7327    102.50309   -2750.4415    95972.405    95972.405 
   14350    3131.7916    100.79914   -2748.7335    91828.593    91828.593 
   14360    3232.5859    104.04329   -2751.9875    92172.869    92172.869 
   14370     3169.173    102.00229    -2749.943     101064.6     101064.6 
   14380    3068.6419    98.766621   -2746.7072    102011.72    102011.72 
   14390    3040.5192    97.861469    -2745.796    100497.72    100497.72 
   14400    3270.2142    105.25438   -2753.1963     99356.21     99356.21 
   14410    3465.9135    111.55312   -2759.5013    103613.68    103613.68 
   14420    3324.7934    107.01106   -2754.9526    110959.45    110959.45 
   14430    3115.7092    100.28152   -2748.2167    117522.36    117522.36 
   14440    3178.2402    102.29413   -2750.2293    113131.43    113131.43 
   14450    3373.1957    108.56892    -2756.522    99812.025    99812.025 
   14460    3114.3279    100.23706   -2748.1682    95769.163    95769.163 
   14470    3106.9492    99.999571   -2747.9324    101513.02    101513.02 
   14480    3299.5755     106.1994   -2754.1463    110641.85    110641.85 
   14490    3162.3566     101.7829   -2749.7186    117603.04    117603.04 
   14500    3075.3635    98.982961    -2746.917    115040.62    115040.62 
   14510    3161.1245    101.74325   -2749.6823    99447.013    99447.013 
   14520    3174.4843    102.17324   -2750.1152    81806.216    81806.216 
   14530    2997.8018    96.486578   -2744.4215    78193.252    78193.252 
   14540    2967.2689    95.503851   -2743.4365    86219.289    86219.289 
   14550    3202.5976    103.07809   -2751.0221    93763.778    93763.778 
   14560    3315.4958     106.7118   -2754.6525    97847.852    97847.852 
   14570    3291.1611    105.92857   -2753.8708    100653.51    100653.51 
   14580     3159.208    101.68156    -2749.617     101040.1     101040.1 
   14590     3204.014    103.12368   -2751.0612    97549.493    97549.493 
   14600    3304.7626    106.36635   -2754.3133    96267.488    96267.488 
   14610    3212.7596    103.40516   -2751.3396    101069.51    101069.51 
   14620     3261.196    104.96413   -2752.9076    103836.41    103836.41 
   14630    3181.4132    102.39625   -2750.3365    111467.89    111467.89 
   14640    3051.6462    98.219603   -2746.1544    120149.27    120149.27 
   14650    3084.8399    99.287965   -2747.2282    123382.08    123382.08 
   14660    3101.5436    99.825589     -2747.77     118072.2     118072.2 
   14670    2967.3043    95.504991   -2743.4399    116002.45    116002.45 
   14680    2997.7613    96.485275   -2744.4228    112687.68    112687.68 
   14690    3117.1153    100.32678   -2748.2681    105605.44    105605.44 
   14700    3187.5052    102.59233    -2750.534    103641.55    103641.55 
   14710    3142.9341    101.15777   -2749.1027    99409.624    99409.624 
   14720     2971.731     95.64747   -2743.5757    101823.26    101823.26 
   14730    3218.0567    103.57565   -2751.5169    105176.26    105176.26 
   14740    3395.6004    109.29004   -2757.2422    101332.91    101332.91 
   14750    3106.5586       99.987   -2747.9233    94245.014    94245.014 
   14760    2908.4752    93.611531   -2741.5456    90338.556    90338.556 
   14770    3003.6859    96.675963   -2744.6138    88979.579    88979.579 
   14780    3160.6654    101.72847   -2749.6754    87579.611    87579.611 
   14790    3021.6557    97.254332   -2745.1922     94755.42     94755.42 
   14800    2964.0971    95.401767   -2743.3326     102232.6     102232.6 
   14810    3240.5493     104.2996   -2752.2459    94203.621    94203.621 
   14820    3279.3575    105.54867   -2753.4935      90399.5      90399.5 
   14830    3076.5544    99.021291   -2746.9545     94397.19     94397.19 
   14840    3086.5722    99.343721   -2747.2816    96085.765    96085.765 
   14850    3154.3234    101.52435    -2749.467    94573.678    94573.678 
   14860    3100.4765    99.791241   -2747.7293    92546.015    92546.015 
   14870    3062.1987    98.559241   -2746.5031    95432.355    95432.355 
   14880    2903.1487    93.440093   -2741.3751    106164.72    106164.72 
   14890    2955.8788    95.137253   -2743.0747     110755.6     110755.6 
   14900    3172.9106    102.12259   -2750.0654    112312.62    112312.62 
   14910    3293.8065    106.01372   -2753.9582    113918.95    113918.95 
   14920    3219.2801    103.61503   -2751.5609    116169.95    116169.95 
   14930    3008.0613    96.816787   -2744.7468    115090.26    115090.26 
   14940    3212.4765    103.39605   -2751.3385    108204.18    108204.18 
   14950    3382.8157    108.87855   -2756.8306    103073.76    103073.76 
   14960    3091.4254    99.499925   -2747.4393    103916.19    103916.19 
   14970    2885.6091    92.875567   -2740.8047    107726.06    107726.06 
   14980    3130.7173    100.76457   -2748.7112    110523.52    110523.52 
   14990    3211.2584    103.35684   -2751.3018    111743.99    111743.99 
   15000    3130.0472      100.743   -2748.6845     104005.1     104005.1 
Loop time of 20.4064 on 1 procs for 15000 steps with 250 atoms

Performance: 31.755 ns/day, 0.756 hours/ns, 735.063 timesteps/s
99.5% CPU use with 1 MPI tasks x no OpenMP threads

MPI task timing breakdown:
Section |  min time  |  avg time  |  max time  |%varavg| %total
---------------------------------------------------------------
Pair    | 19.392     | 19.392     | 19.392     |   0.0 | 95.03
Neigh   | 0.56905    | 0.56905    | 0.56905    |   0.0 |  2.79
Comm    | 0.075058   | 0.075058   | 0.075058   |   0.0 |  0.37
Output  | 0.31175    | 0.31175    | 0.31175    |   0.0 |  1.53
Modify  | 0.032073   | 0.032073   | 0.032073   |   0.0 |  0.16
Other   |            | 0.02641    |            |       |  0.13

Nlocal:    250 ave 250 max 250 min
Histogram: 1 0 0 0 0 0 0 0 0 0
Nghost:    906 ave 906 max 906 min
Histogram: 1 0 0 0 0 0 0 0 0 0
Neighs:    0 ave 0 max 0 min
Histogram: 1 0 0 0 0 0 0 0 0 0
FullNghs:  8926 ave 8926 max 8926 min
Histogram: 1 0 0 0 0 0 0 0 0 0

Total # of neighbors = 8926
Ave neighs/atom = 35.704
Neighbor list builds = 1500
Dangerous builds not checked

Total wall time: 0:00:20
