
# Define the lattice
variable	lattice_constant equal 3.90859
lattice		bcc ${lattice_constant}
lattice		bcc 3.90859
Lattice spacing in x,y,z = 3.90859 3.90859 3.90859

# Define region
# multiples of lattice spacing
region 		simbox block 0 5 0 5 0 5

# Create Atoms
create_box 	1 simbox
Created orthogonal box = (0 0 0) to (19.5429 19.5429 19.5429)
  1 by 1 by 1 MPI processor grid
create_atoms 	1 box
Created 250 atoms
  Time spent = 0.000736952 secs
mass		1 18.015

velocity	all create ${temperature} 97287
velocity	all create 300.0 97287

# Define Interatomic Potential
pair_style	sw
pair_coeff	* * mW_metal.sw mW
Reading potential file mW_metal.sw with DATE: 2019-02-27

neighbor 	2.0 bin
neigh_modify	delay 10 check no

# Pressure computations
compute		total_press all pressure thermo_temp
compute		peratom all stress/atom NULL
compute		p all reduce sum c_peratom[1] c_peratom[2] c_peratom[3]
variable	press equal -(c_p[1]+c_p[2]+c_p[3])/(3*vol)

# Density computations
variable	total_mass equal mass(all)
variable	v equal vol
print 		${total_mass}
print 		4503.75
4503.75
print		$v
print		7463.97820682622
7463.97820682622

variable 	density equal v_total_mass/(v_v*18.015)
print 		${density}
print 		0.0334942028329291
0.0334942028329291

# Displacement computations
compute		disp all msd

# Run equilibration
thermo_style	custom step temp ke pe c_total_press c_disp[4]
thermo		10
dump		1 all atom 10 ${simname}.dump
dump		1 all atom 10 mW_bcc_3.90859.dump

fix 		1 all nve
#temp 300.0 300.0 100.0 iso 0.0 0.0 1000.0
timestep	0.0005
run		5000
Neighbor list info ...
  update every 1 steps, delay 10 steps, check no
  max neighbors/atom: 2000, page size: 100000
  master list distance cutoff = 6.3065
  ghost atom cutoff = 6.3065
  binsize = 3.15325, bins = 7 7 7
  1 neighbor lists, perpetual/occasional/extra = 1 0 0
  (1) pair sw, perpetual
      attributes: full, newton on
      pair build: full/bin/atomonly
      stencil: full/bin/3d
      bin: standard
Per MPI rank memory allocation (min/avg/max) = 4.73 | 4.73 | 4.73 Mbytes
Step Temp KinEng PotEng c_total_press c_disp[4] 
       0          300    9.6557328   -100.22289   -45700.037            0 
      10    300.09183    9.6586885   -100.22585   -45470.085 0.0010344036 
      20    300.10021    9.6589583   -100.22614   -44802.354 0.0041382593 
      30    299.25654    9.6318038   -100.19901   -43747.413 0.0093079064 
      40    296.58257    9.5457403   -100.11297   -42345.427   0.01652053 
      50    291.36081    9.3776738   -99.944913   -40611.339  0.025717488 
      60    283.46999    9.1237017   -99.690933   -38568.292  0.036795095 
      70    273.42747    8.8004754   -99.367687    -36272.48  0.049606538 
      80    262.25343    8.4408303   -99.008017   -33809.949  0.063972878 
      90    251.23477    8.0861861   -98.653348   -31286.627  0.079699157 
     100    241.66502    7.7781762   -98.345318   -28807.961   0.09659127 
     110    234.68683    7.5535776   -98.120704   -26454.854   0.11447175 
     120    231.18552    7.4408852   -98.008005   -24283.973   0.13319517 
     130    231.63906    7.4554829   -98.022606   -22331.434   0.15266071 
     140     236.0455    7.5973077   -98.164442   -20605.693   0.17281867 
     150    243.97017    7.8523693   -98.419522   -19090.819   0.19367149 
     160    254.64637    8.1959909   -98.763165   -17756.615   0.21526965 
     170    267.09621    8.5966987   -99.163896   -16567.439   0.23770261 
     180    280.27781    9.0209588   -99.588178   -15486.091   0.26108549 
     190    293.22552     9.437691   -100.00493   -14480.564    0.2855441 
     200    305.16844     9.822083   -100.38933    -13523.43   0.31120002 
     210    315.63644    10.159004   -100.72626    -12595.11   0.33815878 
     220     324.4833    10.443747     -101.011    -11686.02   0.36650286 
     230    331.80258    10.679324   -101.24657    -10789.63   0.39628746 
     240    337.88742    10.875169   -101.44241   -9906.0029   0.42753871 
     250    343.19798    11.046093   -101.61333   -9038.9444   0.46025834 
     260    348.26028    11.209027   -101.77625   -8191.9145   0.49443396 
     270    353.52793    11.378571   -101.94579   -7371.0459   0.53005083 
     280    359.27674    11.563601   -102.13082   -6587.2497   0.56710128 
     290    365.56927    11.766131   -102.33336   -5849.3141   0.60559029 
     300    372.29207    11.982509   -102.54974   -5158.3638   0.64553702 
     310    379.19731     12.20476     -102.772   -4498.9756   0.68697235 
     320    385.91587    12.421002   -102.98825   -3851.0551    0.7299291 
     330    392.07962    12.619387   -103.18664   -3210.6608    0.7744283 
     340    397.42641    12.791478   -103.35874   -2588.8914   0.82047032 
     350    401.79729    12.932158   -103.49942   -2004.6379   0.86803188 
     360    405.12086    13.039129   -103.60639   -1466.7531   0.91706584 
     370    407.42537    13.113302   -103.68057   -970.84202   0.96750256 
     380    408.82438     13.15833   -103.72559   -506.47873     1.019254 
     390    409.43257    13.177905   -103.74517   -62.449958    1.0722185 
     400    409.33595    13.174795   -103.74206    367.43037    1.1262847 
     410    408.63609     13.15227   -103.71953    778.42556    1.1813352 
     420     407.5027    13.115791   -103.68305    1167.9293    1.2372528 
     430    406.18756    13.073462   -103.64072    1545.3499    1.2939258 
     440    404.99624    13.035118   -103.60237    1920.6198     1.351252 
     450    404.23701    13.010682   -103.57793    2294.0045    1.4091412 
     460    404.13594    13.007429   -103.57467    2653.0503    1.4675186 
     470    404.78176    13.028215   -103.59546      2976.29    1.5263278 
     480    406.16903    13.072865   -103.64011     3244.457    1.5855315 
     490    408.25376    13.139964   -103.70721    3447.1784    1.6451122 
     500    410.90562    13.225316   -103.79257    3580.0419    1.7050687 
     510    413.86901    13.320695   -103.88796    3653.5341    1.7654084 
     520    416.84797    13.416576   -103.98385    3692.8473    1.8261372 
     530    419.57192    13.504248   -104.07153    3727.8356    1.8872512 
     540    421.83935    13.577227   -104.14451    3779.0854    1.9487305 
     550    423.55755    13.632529   -104.19981    3849.0809     2.010538 
     560    424.79155    13.672246   -104.23953    3933.1542    2.0726239 
     570    425.80216    13.704773   -104.27205    4027.5226    2.1349357 
     580    426.95011    13.741721   -104.30899    4134.1627    2.1974309 
     590    428.49194    13.791346   -104.35861    4250.6541    2.2600814 
     600    430.56176    13.857964   -104.42523    4352.9747    2.3228714 
     610    433.21952    13.943507   -104.51078    4411.5152    2.3857955 
     620    436.36762    14.044831   -104.61211    4431.0438    2.4488596 
     630    439.61804    14.149448   -104.71674    4428.2131    2.5120713 
     640    442.39881    14.238949   -104.80626    4408.6988    2.5754248 
     650    444.10862    14.293981    -104.8613    4372.5034    2.6388897 
     660    444.29859    14.300095   -104.86742    4319.4557     2.702405 
     670    442.83034    14.252838   -104.82016     4252.882    2.7658841 
     680    439.91977    14.159159   -104.72647    4171.9375    2.8292277 
     690    436.07645    14.035459   -104.60275    4071.0502    2.8923357 
     700    432.05725    13.906098   -104.47337    3947.6429    2.9551196 
     710    428.66812    13.797016   -104.36428    3796.7551     3.017517 
     720    426.46332    13.726053   -104.29331    3606.1561    3.0794985 
     730    425.67911    13.700812   -104.26807    3366.2093    3.1410655 
     740    426.28703    13.720379   -104.28765    3088.5997    3.2022447 
     750    427.99626    13.775392   -104.34267    2805.8392    3.2630814 
     760    430.34468    13.850977   -104.41827     2547.685    3.3236315 
     770    432.93471     13.93434   -104.50163    2330.9821    3.3839557 
     780    435.57941    14.019461   -104.58676    2163.0883    3.4441167 
     790    438.23702    14.104999   -104.67229    2044.5273    3.5041762 
     800    440.82185    14.188193   -104.75549     1966.798    3.5641893 
     810    443.07433    14.260691     -104.828    1914.7094    3.6241998 
     820    444.59604    14.309669   -104.87699    1875.0813    3.6842392 
     830    444.98526    14.322196   -104.88952    1847.6879    3.7443251 
     840    443.97934     14.28982   -104.85715    1843.3564    3.8044535 
     850    441.57934    14.212574   -104.77989    1857.9218    3.8645878 
     860     438.0576    14.099224   -104.66654    1879.0314    3.9246559 
     870     433.8621    13.964188   -104.53149    1897.7535    3.9845514 
     880    429.51434    13.824252   -104.39155    1915.2594    4.0441388 
     890     425.5245    13.695836   -104.26313    1929.7136    4.1032695 
     900    422.29936    13.592033   -104.15932     1935.571     4.161807 
     910    420.05639    13.519841   -104.08713    1934.4253    4.2196504 
     920    418.84132    13.480733   -104.04802    1929.1418    4.2767486 
     930    418.59259    13.472727   -104.04002    1921.3462    4.3330987 
     940    419.20856    13.492553   -104.05985    1917.8245    4.3887397 
     950    420.55261    13.535812   -104.10311    1923.7125    4.4437456 
     960    422.40088      13.5953    -104.1626     1932.657    4.4982203 
     970    424.48209    13.662286   -104.22959    1934.9823    4.5522927 
     980    426.57087    13.729514   -104.29682      1916.67    4.6061115 
     990     428.5623     13.79361   -104.36091    1870.8132    4.6598412 
    1000    430.47322    13.855115   -104.42242    1802.8198    4.7136597 
    1010    432.25657    13.912513   -104.47982    1720.2488    4.7677539 
    1020    433.77684    13.961444   -104.52875     1635.004    4.8223074 
    1030    434.84649    13.995872   -104.56318    1562.1338    4.8774849 
    1040    435.25227    14.008932   -104.57625    1511.9676    4.9334104 
    1050    434.84448    13.995807   -104.56312    1492.0756    4.9901515 
    1060    433.60903    13.956043   -104.52336    1511.3804    5.0477158 
    1070    431.65322    13.893094   -104.46041    1565.9705    5.1060578 
    1080     429.1481    13.812465   -104.37977    1641.8775     5.165093 
    1090    426.39892     13.72398   -104.29128    1744.3246    5.2247139 
    1100    423.76833    13.639313    -104.2066    1886.6582    5.2847967 
    1110    421.49763    13.566228   -104.13352    2070.5544    5.3451937 
    1120    419.71789    13.508946   -104.07623    2287.0951    5.4057242 
    1130     418.5306    13.470732   -104.03802    2521.1747    5.4661764 
    1140    417.99671    13.453548   -104.02083    2751.6311    5.5263273 
    1150     418.1493     13.45846   -104.02574    2956.8069    5.5859711 
    1160    419.00375    13.485961   -104.05324    3115.6783    5.6449421 
    1170    420.58243    13.536772   -104.10406    3217.2984    5.7031299 
    1180    422.76573    13.607043   -104.17434    3260.4467    5.7604912 
    1190    425.12144    13.682864   -104.25017    3255.7634    5.8170441 
    1200    426.99814    13.743266   -104.31059     3231.349    5.8728518 
    1210    427.75491    13.767624   -104.33496    3210.6334    5.9280073 
    1220    426.99544     13.74318   -104.31051    3202.5414    5.9826252 
    1230     424.7015    13.669347   -104.23667    3204.4787    6.0368331 
    1240    421.25173    13.558314   -104.12563    3208.9042    6.0907603 
    1250    417.38095     13.43373   -104.00102    3203.8121    6.1445309 
    1260    413.97486    13.324102   -103.89138     3175.731    6.1982733 
    1270     411.7348    13.252004   -103.81928    3121.6975    6.2521327 
    1280    410.87697    13.224394   -103.79167    3046.1561    6.3062756 
    1290     411.0998    13.231566   -103.79886    2955.4215    6.3608807 
    1300    411.73541    13.252024   -103.81933     2846.162    6.4161213 
    1310    411.94159     13.25866   -103.82598    2721.1923    6.4721419 
    1320    411.02186    13.229058   -103.79639    2599.0001    6.5290345 
    1330    408.72109    13.155006   -103.72233    2494.0538    6.5868276 
    1340     405.3334     13.04597   -103.61328    2416.6572    6.6454901 
    1350    401.70687    12.929248   -103.49653    2372.5903    6.7049461 
    1360    399.01317    12.842548   -103.40981    2359.2509    6.7651049 
    1370    398.29053     12.81929   -103.38654    2365.3482    6.8258905 
    1380    400.10258    12.877612   -103.44487     2368.921    6.8872547 
    1390    404.45024    13.017545   -103.58481    2352.5046    6.9491733 
    1400     410.9674    13.227305   -103.79458    2312.4477    7.0116374 
    1410    419.07433    13.488233   -104.05553    2252.1287    7.0746422 
    1420    427.94423    13.773717   -104.34103    2167.3238    7.1381687 
    1430    436.52016     14.04974   -104.61708     2047.761    7.2021692 
    1440    443.73885    14.282079   -104.84943    1892.3911    7.2665619 
    1450    448.86876     14.44719   -105.01455    1704.8957    7.3312326 
    1460    451.64993    14.536703   -105.10406    1505.2694    7.3960481 
    1470    452.24591    14.555886   -105.12323    1316.8665    7.4608684 
    1480     451.1798    14.521572   -105.08889    1152.4183    7.5255554 
    1490    449.20397    14.457978   -105.02528    1008.3332    7.5899867 
    1500    447.06509    14.389137   -104.95643    871.64853    7.6540737 
    1510     445.2664    14.331245   -104.89853    730.49757    7.7177764 
    1520    444.00992    14.290804   -104.85809      591.412    7.7811101 
    1530    443.21402    14.265187   -104.83248    478.69136     7.844133 
    1540    442.63025    14.246398    -104.8137     408.5306    7.9069197 
    1550    442.00261    14.226197    -104.7935     382.0685    7.9695348 
    1560    441.15912    14.199049   -104.76635    395.28732    8.0320174 
    1570    440.12301    14.165701     -104.733    440.00704    8.0943787 
    1580    439.12179    14.133476   -104.70077    497.52586    8.1566143 
    1590     438.4609    14.112204    -104.6795    555.06746    8.2187298 
    1600    438.24597    14.105287   -104.67258    609.53971    8.2807629 
    1610     438.3472    14.108545   -104.67585    666.55922     8.342785 
    1620    438.57723    14.115948   -104.68325    732.85153    8.4048933 
    1630    438.75973    14.121822   -104.68913    807.73841    8.4671987 
    1640    438.80131    14.123161   -104.69047    896.11738    8.5298081 
    1650    438.77996    14.122474   -104.68978    1007.3891    8.5928123 
    1660    438.86398    14.125178   -104.69248    1135.8675     8.656277 
    1670    439.16013     14.13471   -104.70201     1268.322    8.7202252 
    1680    439.59502    14.148707   -104.71602    1407.9676    8.7846246 
    1690    439.85795    14.157169   -104.72449    1559.9534    8.8493839 
    1700    439.60231    14.148941   -104.71627    1725.7835    8.9143525 
    1710     438.5942    14.116495   -104.68382    1915.3206    8.9793358 
    1720    436.72758    14.056416   -104.62375    2135.4863    9.0441189 
    1730    434.06853    13.970833   -104.53816    2382.3869     9.108489 
    1740    430.85066    13.867263   -104.43458    2635.8606    9.1722435 
    1750    427.51758    13.759985   -104.32729    2864.3953    9.2351922 
    1760    424.72282    13.670034   -104.23732    3042.0987    9.2971641 
    1770    423.17538    13.620228   -104.18751    3154.9201    9.3580175 
    1780    423.38326    13.626919   -104.19419    3199.7477    9.4176475 
    1790    425.44896    13.693405   -104.26069    3188.9316    9.4759881 
    1800    429.02961    13.808651   -104.37595    3138.3052    9.5330038 
    1810    433.39521    13.949161   -104.51648    3051.5836    9.5886757 
    1820    437.54925    14.082862    -104.6502    2929.7952    9.6429919 
    1830     440.5226    14.178562   -104.74591    2789.9723    9.6959446 
    1840    441.63541    14.214379   -104.78174    2652.7527    9.7475368 
    1850    440.53915    14.179094   -104.74645    2534.6216     9.797791 
    1860     437.2982    14.074782   -104.64213    2442.1697    9.8467438 
    1870    432.50323    13.920452   -104.48778    2390.2677    9.8944295 
    1880    427.32632    13.753829   -104.32112     2393.047     9.940882 
    1890    423.19651    13.620908   -104.18818     2437.204    9.9861544 
    1900    421.21137    13.557015   -104.12427    2494.7302    10.030338 
    1910    421.93166    13.580198   -104.14746    2558.4315    10.073576 
    1920    425.39135    13.691551   -104.25882     2625.908    10.116071 
    1930    431.06578    13.874187   -104.44148    2707.0419     10.15806 
    1940    437.93789    14.095371   -104.66269     2816.473     10.19978 
    1950    444.77493    14.315426   -104.88277    2956.2674    10.241449 
    1960    450.39449    14.496296   -105.06367    3119.6945    10.283258 
    1970    453.71111    14.603044   -105.17043    3297.3668    10.325341 
    1980    454.01957    14.612972   -105.18037    3482.9595    10.367729 
    1990    451.17749    14.521498   -105.08889    3667.8354    10.410348 
    2000    445.53635    14.339933   -104.90731    3837.9115    10.453051 
    2010    437.82737    14.091814   -104.65917    3979.4196    10.495658 
    2020    429.12708    13.811788   -104.37912    4084.1367    10.537991 
    2030     420.5948     13.53717   -104.10448    4150.2957    10.579909 
    2040    413.22723    13.300039   -103.86733     4183.855    10.621322 
    2050    407.74793    13.123684   -103.69097    4189.7548    10.662217 
    2060    404.47178    13.018238   -103.58553    4167.6233    10.702652 
    2070    403.33813    12.981751   -103.54905    4117.9596    10.742752 
    2080    404.06021    13.004992    -103.5723    4043.4496    10.782701 
    2090    406.23138    13.074872   -103.64219    3942.2221    10.822733 
    2100    409.37236    13.175967   -103.74329    3819.5625    10.863118 
    2110      413.002     13.29279   -103.86012    3681.5609    10.904131 
    2120    416.83354    13.416111   -103.98344    3536.0978    10.946024 
    2130    420.71983    13.541194   -104.10852    3400.0675    10.989011 
    2140    424.51789    13.663438   -104.23077    3283.4847     11.03325 
    2150    428.02464    13.776305   -104.34364    3181.6702    11.078822 
    2160    430.91706      13.8694   -104.43675    3086.3853    11.125734 
    2170    432.71113    13.927144    -104.4945    3006.4178    11.173919 
    2180    432.83447    13.931113   -104.49848    2963.7925    11.223244 
    2190     430.8171    13.866183   -104.43355    2971.5689    11.273521 
    2200     426.5428    13.728611   -104.29597    3026.5696    11.324522 
    2210    420.43256    13.531948   -104.09929    3115.3618    11.375996 
    2220     413.3843    13.305095   -103.87241    3216.3194    11.427688 
    2230    406.54673    13.085022   -103.65231     3308.245    11.479347 
    2240    401.16253    12.911727     -103.479    3373.9397    11.530738 
    2250    398.33081    12.820586   -103.38784    3399.3868    11.581668 
    2260     398.7179    12.833045    -103.4003    3385.8512    11.632008 
    2270     402.2983    12.948283   -103.51556    3342.0955    11.681727 
    2280      408.275    13.140648   -103.70795    3283.9095    11.730899 
    2290    415.36748    13.368925   -103.93625    3231.9095     11.77969 
    2300    422.27729    13.591322   -104.15867    3201.9206    11.828314 
    2310    428.00414    13.775645     -104.343    3205.0932     11.87699 
    2320     431.9299    13.901999   -104.46936    3244.9543    11.925899 
    2330    433.82575    13.963019   -104.53037    3301.5946    11.975156 
    2340    433.83261    13.963239   -104.53058    3349.5174    12.024802 
    2350    432.38803    13.916744   -104.48408    3384.1952    12.074809 
    2360    430.13642    13.844274   -104.41159    3412.9443    12.125078 
    2370    427.70567    13.766039   -104.33335    3435.0747    12.175456 
    2380    425.56691    13.697201   -104.26451    3450.5941    12.225748 
    2390    423.97591    13.645994    -104.2133    3461.7085    12.275735 
    2400    422.96769    13.613544   -104.18085    3455.1889     12.32519 
    2410    422.33972    13.593332   -104.16065    3415.2801    12.373898 
    2420    421.67496    13.571936   -104.13927    3341.6911     12.42167 
    2430    420.39603    13.530773   -104.09812    3252.2706    12.468358 
    2440    417.86479    13.449302   -104.01666    3164.2387    12.513856 
    2450    413.65475    13.313799   -103.88116    3083.0483    12.558096 
    2460    407.79826    13.125304   -103.69265    3016.7487    12.601038 
    2470    400.82367    12.900821   -103.46814    2991.4691    12.642664 
    2480    393.70796    12.671796   -103.23909    3019.0395    12.682954 
    2490    387.76323    12.480461   -103.04772    3084.1921    12.721877 
    2500    384.30583    12.369181   -102.93643    3147.0912    12.759395 
    2510    384.17655    12.365021   -102.93226    3157.0311     12.79549 
    2520    387.51333    12.472417   -103.03967    3083.8008    12.830188 
    2530    393.82377    12.675524   -103.24279    2921.5783    12.863566 
    2540    402.12086    12.942572   -103.50987     2686.093    12.895753 
    2550     411.1733    13.233932   -103.80125    2417.3155    12.926929 
    2560    419.82521      13.5124   -104.07974    2153.0096    12.957313 
    2570     427.0868     13.74612   -104.31347    1907.6641    12.987164 
    2580    432.23385    13.911782   -104.47914    1679.0427    13.016769 
    2590     434.9472    13.999113   -104.56647    1455.8726    13.046429 
    2600    435.25579    14.009045    -104.5764    1239.5536    13.076443 
    2610    433.43464     13.95043   -104.51777    1050.2742    13.107094 
    2620    429.87357    13.835814   -104.40315    887.92968    13.138645 
    2630    425.01788     13.67953   -104.24686    739.63396    13.171351 
    2640    419.34066    13.496805   -104.06412    591.80468    13.205426 
    2650    413.31004    13.302704   -103.87001    435.75822    13.241023 
    2660    407.37308    13.111619   -103.67892    268.22584     13.27821 
    2670    402.03163      12.9397   -103.50699    87.679483    13.316958 
    2680    397.90595    12.806912   -103.37418   -94.929456    13.357141 
    2690    395.61794     12.73327   -103.30053   -255.92548    13.398552 
    2700     395.5891    12.732342    -103.2996    -370.1366    13.440924 
    2710    397.94149    12.808056   -103.37532   -415.24651    13.483962 
    2720    402.42561     12.95238   -103.51965   -383.06906    13.527362 
    2730    408.40574    13.144856   -103.71215    -285.5184    13.570833 
    2740    414.92894     13.35481   -103.92212   -146.57671    13.614105 
    2750    420.89925    13.546969    -104.1143    14.196461    13.656946 
    2760    425.36427    13.690679   -104.25803    191.03004    13.699155 
    2770    427.72669    13.766715   -104.33406     386.9267    13.740558 
    2780    427.85202    13.770749   -104.33809    604.23081    13.780997 
    2790    426.00663    13.711354   -104.27869    833.61644    13.820341 
    2800    422.64335    13.603104   -104.17043    1060.4919    13.858482 
    2810    418.26391    13.462149   -104.02946    1275.6581    13.895336 
    2820    413.37704    13.304861   -103.87217    1473.8569    13.930837 
    2830    408.47304    13.147022   -103.71432    1647.7182    13.964934 
    2840     404.0807    13.005651   -103.57293    1787.3211    13.997596 
    2850    400.73248    12.897886   -103.46516    1886.5504    14.028826 
    2860    398.76387    12.834525    -103.4018    1954.4654    14.058664 
    2870    398.15523    12.814935   -103.38222     2004.961    14.087199 
    2880    398.54264    12.827404    -103.3947    2038.2387    14.114566 
    2890    399.41537    12.855494    -103.4228    2047.5685    14.140932 
    2900    400.35084    12.885602   -103.45292     2025.986    14.166473 
    2910    401.09114     12.90943   -103.47675    1975.9237    14.191351 
    2920    401.48937    12.922247   -103.48956    1912.7586     14.21572 
    2930    401.52121    12.923272   -103.49059    1851.9805    14.239725 
    2940    401.29516    12.915996   -103.48331    1801.9009    14.263512 
    2950     401.0285    12.907413   -103.47472    1770.9938    14.287215 
    2960    401.02119    12.907178   -103.47448    1766.3257    14.310952 
    2970    401.61076    12.926154   -103.49344    1782.7984    14.334809 
    2980    403.09586    12.973953   -103.54124    1806.1579    14.358845 
    2990    405.57118    13.053623   -103.62092    1830.4165    14.383095 
    3000    408.87712    13.160027   -103.72733    1856.6889    14.407593 
    3010    412.65592    13.281651   -103.84896    1892.1167    14.432403 
    3020    416.46284     13.40418    -103.9715    1938.7344     14.45762 
    3030    419.96549    13.516915   -104.08424    1990.0813    14.483365 
    3040    423.13355    13.618882   -104.18619    2037.4911    14.509756 
    3050    426.21574    13.718084   -104.28539    2075.7806    14.536891 
    3060    429.46479    13.822658   -104.38996    2103.1783    14.564826 
    3070    432.79131    13.929724   -104.49704      2125.22    14.593559 
    3080    435.73423    14.024444   -104.59178    2133.6098    14.623018 
    3090    437.69048    14.087408   -104.65475    2116.5204    14.653059 
    3100    438.30224    14.107098   -104.67444    2075.5555    14.683492 
    3110    437.60253    14.084577   -104.65191    2017.7856    14.714105 
    3120    435.83873    14.027808   -104.59513     1964.626    14.744685 
    3130    433.21424    13.943337   -104.51066    1942.5591    14.775048 
    3140    429.76397    13.832287   -104.39962    1960.5212    14.805046 
    3150    425.39431    13.691646   -104.25898    2010.7723    14.834584 
    3160    420.05362    13.519752   -104.08708    2081.2893    14.863614 
    3170    413.93317     13.32276   -103.89008     2159.461    14.892138 
    3180    407.58928    13.118577   -103.68588    2229.2876    14.920197 
    3190    401.82486    12.933045   -103.50033    2260.4051    14.947872 
    3200    397.44465    12.792065   -103.35933    2243.9706    14.975276 
    3210    395.13479     12.71772   -103.28498    2194.1102    15.002541 
    3220    395.32525     12.72385   -103.29111    2113.3995    15.029802 
    3230    398.03021    12.810911   -103.37818    2007.7052    15.057175 
    3240    402.78943    12.964091   -103.53138    1901.2964    15.084752 
    3250    408.68149    13.153731   -103.72105    1813.3966    15.112614 
    3260    414.53677    13.342188   -103.90952     1747.153    15.140833 
    3270    419.26127    13.494249    -104.0616     1701.888    15.169463 
    3280     422.1337    13.586701   -104.15405    1677.1964    15.198533 
    3290    422.93141    13.612376   -104.17972    1666.6252     15.22804 
    3300    421.87691    13.578436   -104.14577    1670.8091    15.257955 
    3310    419.50138    13.501977    -104.0693    1695.4933    15.288232 
    3320     416.4275    13.403042   -103.97035    1730.3087    15.318822 
    3330    413.23301    13.300225   -103.86752    1757.4979    15.349687 
    3340    410.38731    13.208634   -103.77593    1765.7903    15.380812 
    3350    408.25545    13.140018   -103.70731    1758.9378    15.412209 
    3360    407.12348    13.103585   -103.67087    1746.1406    15.443904 
    3370    407.20115    13.106085   -103.67337    1732.9547    15.475908 
    3380    408.53779    13.149106   -103.71639    1712.9817    15.508216 
    3390    410.92134    13.225822   -103.79312    1672.5033    15.540811 
    3400    413.96551    13.323801   -103.89111    1609.9374    15.573675 
    3410    417.27577    13.430345   -103.99766    1528.8444    15.606777 
    3420    420.47561    13.533334   -104.10066    1428.3356    15.640078 
    3430    423.16442    13.619875   -104.18721    1313.0856    15.673538 
    3440    424.97068    13.678011   -104.24535    1192.7486    15.707114 
    3450    425.64504    13.699716   -104.26705    1080.2422    15.740762 
    3460    425.13639    13.683345   -104.25068     999.1178    15.774441 
    3470    423.61648    13.634425   -104.20175    968.94361    15.808125 
    3480    421.43062    13.564072   -104.13138    992.05972    15.841812 
    3490    419.00624    13.486041   -104.05334    1054.8381    15.875519 
    3500    416.73388    13.412903    -103.9802    1141.2159    15.909283 
    3510    414.82445    13.351447   -103.91875    1251.0234    15.943143 
    3520    413.30584    13.302569   -103.86987    1391.6896    15.977097 
    3530    412.19307    13.266754   -103.83406    1558.1083    16.011083 
    3540     411.5809    13.247051   -103.81435    1742.5363    16.044984 
    3550    411.52594    13.245282   -103.81259    1940.0803    16.078641 
    3560    412.01964    13.261172   -103.82848    2134.9923    16.111858 
    3570    413.09104    13.295656   -103.86296    2308.5389    16.144429 
    3580    414.80012    13.350664   -103.91797    2450.8619    16.176178 
    3590     417.1216    13.425383   -103.99269     2566.519    16.206996 
    3600    419.84299    13.512972   -104.08029    2661.7903    16.236867 
    3610    422.56599    13.600614   -104.16794    2742.8679    16.265864 
    3620    424.87608    13.674966    -104.2423    2823.1237    16.294123 
    3630    426.44546    13.725478   -104.29282    2903.2723    16.321815 
    3640    427.08038    13.745913   -104.31325    2973.0844    16.349122 
    3650    426.81136    13.737255   -104.30459    3025.7812    16.376208 
    3660    425.83021    13.705676     -104.273    3055.8917    16.403196 
    3670    424.31459    13.656894   -104.22422     3051.309    16.430145 
    3680    422.38147    13.594675     -104.162     3010.385    16.457039 
    3690    420.16041    13.523189   -104.09051    2942.6016    16.483787 
    3700    417.89842    13.450385    -104.0177    2860.9382    16.510248 
    3710    415.97653    13.388527   -103.95583     2775.435    16.536255 
    3720    414.81245    13.351061   -103.91836    2698.7651    16.561639 
    3730    414.72705    13.348312   -103.91561    2636.5873     16.58625 
    3740    415.87076    13.385123   -103.95242    2580.6115    16.609974 
    3750    418.19093      13.4598    -104.0271    2517.2093    16.632764 
    3760    421.37726    13.562354   -104.12967     2429.005    16.654656 
    3770    424.98389    13.678436   -104.24575    2316.2244    16.675771 
    3780    428.66302    13.796852   -104.36417    2186.0722    16.696303 
    3790    432.21846    13.911287    -104.4786     2045.469    16.716494 
    3800     435.4912    14.016622   -104.58394      1909.28    16.736629 
    3810    438.38796    14.109857   -104.67717    1794.0304    16.757047 
    3820     440.9859    14.193473   -104.76078    1701.1972    16.778152 
    3830    443.43288    14.272231   -104.83954    1619.5045    16.800401 
    3840    445.81315    14.348842   -104.91615    1536.8955    16.824284 
    3850    448.12733    14.423326   -104.99063    1456.5985    16.850293 
    3860    450.24184    14.491383    -105.0587    1396.4494    16.878877 
    3870    451.83438     14.54264   -105.10997    1370.8967    16.910415 
    3880    452.52765    14.564954   -105.13229    1381.2248    16.945196 
    3890    452.11493     14.55167     -105.119    1428.5221    16.983433 
    3900     450.5595    14.501607   -105.06894     1512.795    17.025247 
    3910    447.86593    14.414913   -104.98225    1624.1579    17.070657 
    3920    444.15746    14.295552   -104.86288    1760.0454    17.119546 
    3930    439.72986    14.153047   -104.72037    1930.4419    17.171661 
    3940    434.88141    13.996996   -104.56432    2143.8591    17.226617 
    3950    429.79393    13.833251   -104.40057    2393.6226    17.283906 
    3960    424.59514    13.665924   -104.23324    2660.7462    17.342913 
    3970    419.49757    13.501855   -104.06917    2922.9032    17.402959 
    3980    414.89519    13.353724   -103.92103    3165.6084     17.46335 
    3990    411.36877    13.240223   -103.80751    3379.4164    17.523432 
    4000     409.6507    13.184926    -103.7522    3549.1573    17.582651 
    4010    410.47705    13.211522   -103.77879    3650.1827    17.640586 
    4020    414.31403    13.335019   -103.90228    3665.9869    17.696965 
    4030    421.13386     13.55452   -104.12179    3598.1154    17.751668 
    4040    430.37076    13.851817   -104.41911    3460.0378    17.804731 
    4050    441.06311    14.195958   -104.76327     3281.388    17.856314 
    4060    452.05259    14.549664     -105.117    3093.8777     17.90665 
    4070    462.07805    14.872341    -105.4397    2907.3775    17.956013 
    4080    469.96538    15.126201   -105.69357    2719.9754    18.004692 
    4090    475.06255    15.290257   -105.85763    2540.4539     18.05298 
    4100    477.25095    15.360692   -105.92806    2389.5296    18.101126 
    4110    476.80691      15.3464   -105.91375    2301.2719    18.149296 
    4120      474.127    15.260145   -105.82749    2284.7456    18.197546 
    4130    469.54336    15.112617   -105.67996    2313.2803    18.245828 
    4140    463.37041    14.913936   -105.48127    2346.1715    18.294005 
    4150    456.00156    14.676764   -105.24408    2350.9781     18.34186 
    4160     447.9945    14.419051   -104.98635    2314.6185    18.389115 
    4170    440.12746    14.165844   -104.73312    2248.3744     18.43548 
    4180    433.33757    13.947306   -104.51457    2169.6028    18.480719 
    4190    428.46262    13.790402   -104.35765    2084.8858      18.5247 
    4200    425.94921    13.709506   -104.27676    2001.4235    18.567419 
    4210    425.88444    13.707421   -104.27468    1923.4246    18.609002 
    4220    428.01907    13.776126   -104.34339    1846.7713     18.64969 
    4230    431.83517     13.89895   -104.46623      1774.19    18.689815 
    4240    436.68965    14.055195   -104.62249    1715.8126    18.729789 
    4250    441.91558    14.223396    -104.7907    1683.0631    18.770077 
    4260     446.9386    14.385066   -104.95238    1675.4242    18.811142 
    4270    451.29306    14.525218   -105.09254    1677.9763    18.853403 
    4280    454.64555     14.63312   -105.20045    1685.7444    18.897187 
    4290    456.87009    14.704718   -105.27205    1704.2393    18.942709 
    4300     458.0365     14.74226   -105.30959    1745.4639    18.990055 
    4310    458.29391    14.750545   -105.31787    1812.8561    19.039166 
    4320    457.75801    14.733297   -105.30062    1900.8306    19.089852 
    4330    456.53679    14.693991   -105.26131    2006.8472    19.141803 
    4340    454.84618    14.639577   -105.20689     2121.252    19.194619 
    4350    453.10133    14.583418   -105.15072    2226.3662    19.247845 
    4360    451.83662    14.542712   -105.11001    2311.1225    19.301002 
    4370    451.45084    14.530296   -105.09759    2368.1303     19.35362 
    4380    452.05824    14.549845   -105.11714    2396.4757    19.405264 
    4390    453.56002    14.598181   -105.16548    2413.0368    19.455545 
    4400    455.65106    14.665483   -105.23279    2449.0082    19.504127 
    4410     457.7302    14.732402   -105.29973    2497.8808     19.55072 
    4420    458.98815     14.77289   -105.34024    2540.4705    19.595042 
    4430    458.54076     14.75849   -105.32585    2593.8223    19.636835 
    4440    455.69031    14.666746   -105.23412    2678.3225    19.675892 
    4450     450.1937    14.489833   -105.05719    2798.9293    19.712084 
    4460    442.52277    14.242939   -104.81027    2947.0018    19.745362 
    4470    433.88626    13.964966   -104.53227    3110.9646    19.775773 
    4480    425.87144    13.707003   -104.27427    3270.9617    19.803479 
    4490    419.96099     13.51677   -104.08402    3400.2097    19.828759 
    4500    417.04259    13.422839   -103.99009     3477.707    19.852011 
    4510    417.15946    13.426601   -103.99387    3497.6884    19.873751 
    4520    419.57033    13.504197    -104.0715    3463.7981    19.894602 
    4530    423.00286    13.614675   -104.18201    3390.0597    19.915252 
    4540    426.14676    13.715864   -104.28322    3298.4203    19.936408 
    4550     428.0594    13.777424   -104.34479    3203.7995    19.958737 
    4560    428.34567    13.786638     -104.354    3106.9099    19.982823 
    4570    427.20733    13.749999   -104.31734    3002.4461    20.009115 
    4580     425.2653    13.687494   -104.25482    2887.0767    20.037917 
    4590     423.2139    13.621468   -104.18879    2762.7918    20.069392 
    4600    421.52192     13.56701   -104.13433    2642.2583    20.103602 
    4610    420.26546     13.52657   -104.09389    2547.3406    20.140532 
    4620    419.20055    13.492295   -104.05962     2484.204    20.180105 
    4630    418.06323     13.45569   -104.02302    2437.8757    20.222188 
    4640    416.86209     13.41703   -103.98435    2397.6225    20.266588 
    4650    416.05278    13.390982   -103.95828    2365.6234    20.313063 
    4660    416.29529    13.398787   -103.96608    2333.9616    20.361341 
    4670    417.92606    13.451274   -104.01857    2296.1054    20.411158 
    4680    420.86404    13.545836   -104.11314    2270.2175    20.462291 
    4690    424.64969     13.66768     -104.235    2246.9072    20.514557 
    4700    428.64531    13.796282    -104.3636    2210.7855    20.567786 
    4710    432.47238    13.919459   -104.48678    2156.0069    20.621836 
    4720    436.05772    14.034856   -104.60217    2089.3966    20.676595 
    4730    439.48423    14.145141   -104.71246    2024.7985    20.731973 
    4740    442.83228    14.252901   -104.82022    1976.2502    20.787896 
    4750    445.98325    14.354317   -104.92164     1958.373    20.844296 
    4760    448.52425    14.436101   -105.00344    1983.3651    20.901115 
    4770    449.81936    14.477785   -105.04513     2061.117    20.958294 
    4780    449.23513    14.458981   -105.02634    2207.2289    21.015777 
    4790    446.38638    14.367292   -104.93465    2430.4782    21.073488 
    4800    441.25281    14.202064   -104.76941    2721.7991    21.131317 
    4810    434.25665    13.976887   -104.54422      3051.37    21.189097 
    4820    426.21727    13.718134   -104.28545    3372.3662    21.246596 
    4830     418.1718    13.459184   -104.02647    3640.8068    21.303527 
    4840    411.22378    13.235556   -103.80283    3835.4347    21.359552 
    4850    406.38545    13.079831   -103.64709    3945.4768     21.41431 
    4860    404.34494    13.014156   -103.58141    3966.2013    21.467459 
    4870    405.31899    13.045506   -103.61276     3905.241     21.51872 
    4880    409.04257    13.165353   -103.73262    3785.1915    21.567913 
    4890    414.93377    13.354965   -103.92225    3640.4319    21.614968 
    4900     422.2622    13.590837   -104.15814    3482.0012    21.659931 
    4910    430.23176    13.847343   -104.41466    3310.3152    21.702951 
    4920    437.94195    14.095502   -104.66284    3140.3975    21.744266 
    4930    444.52816    14.307484   -104.87484    2977.1237    21.784171 
    4940    449.40753     14.46453   -105.03189    2817.6961    21.822986 
    4950    452.28467    14.557133   -105.12449    2671.6885    21.861007 
    4960    453.20917    14.586889   -105.15424    2561.5662    21.898489 
    4970    452.30598    14.557819   -105.12517    2520.7389    21.935633 
    4980    449.57721    14.469991   -105.03735    2557.8697    21.972585 
    4990     445.0686    14.324878   -104.89223    2652.0057    22.009431 
    5000    439.04336    14.130951   -104.69829    2775.0719     22.04621 
Loop time of 5.11587 on 1 procs for 5000 steps with 250 atoms

Performance: 42.222 ns/day, 0.568 hours/ns, 977.351 timesteps/s
99.8% CPU use with 1 MPI tasks x no OpenMP threads

MPI task timing breakdown:
Section |  min time  |  avg time  |  max time  |%varavg| %total
---------------------------------------------------------------
Pair    | 4.8412     | 4.8412     | 4.8412     |   0.0 | 94.63
Neigh   | 0.16831    | 0.16831    | 0.16831    |   0.0 |  3.29
Comm    | 0.01776    | 0.01776    | 0.01776    |   0.0 |  0.35
Output  | 0.076518   | 0.076518   | 0.076518   |   0.0 |  1.50
Modify  | 0.0078804  | 0.0078804  | 0.0078804  |   0.0 |  0.15
Other   |            | 0.004164   |            |       |  0.08

Nlocal:    250 ave 250 max 250 min
Histogram: 1 0 0 0 0 0 0 0 0 0
Nghost:    850 ave 850 max 850 min
Histogram: 1 0 0 0 0 0 0 0 0 0
Neighs:    0 ave 0 max 0 min
Histogram: 1 0 0 0 0 0 0 0 0 0
FullNghs:  8474 ave 8474 max 8474 min
Histogram: 1 0 0 0 0 0 0 0 0 0

Total # of neighbors = 8474
Ave neighs/atom = 33.896
Neighbor list builds = 500
Dangerous builds not checked


# Reset velocities and continue equilibration
unfix 1
velocity	all create ${temperature} 97287
velocity	all create 300.0 97287
fix 		2 all nve
timestep	0.0005
run		5000
Per MPI rank memory allocation (min/avg/max) = 4.73 | 4.73 | 4.73 Mbytes
Step Temp KinEng PotEng c_total_press c_disp[4] 
    5000          300    9.6557328   -104.69829    2134.6547     22.04621 
    5010    302.24512    9.7279937   -104.77056    2140.1047    22.116671 
    5020    306.94721     9.879334   -104.92191    2114.6436    22.184901 
    5030    313.45119     10.08867   -105.13127    2057.0951    22.249742 
    5040    320.79145    10.324922   -105.36754    1978.9838    22.310133 
    5050    327.93835     10.55495   -105.59759    1893.2574    22.365132 
    5060    333.99721    10.749959   -105.79261    1801.7673    22.413933 
    5070     338.3493    10.890035   -105.93269    1701.1665     22.45589 
    5080    340.78916    10.968564   -106.01121    1596.7827    22.490545 
    5090    341.57722    10.993928   -106.03656    1504.7794    22.517655 
    5100    341.35294    10.986709   -106.02932    1436.6468    22.537214 
    5110    340.92001    10.972775   -106.01537    1391.7162    22.549458 
    5120    341.08906    10.978216    -106.0208    1365.1601    22.554851 
    5130    342.48715    11.023215   -106.06579    1347.6992    22.554053 
    5140    345.30855    11.114024   -106.15661    1329.6247    22.547874 
    5150    349.21287    11.239687   -106.28229    1307.7312    22.537229 
    5160    353.38253    11.373891   -106.41651    1288.6763    22.523085 
    5170    356.75607    11.482471   -106.52512    1280.6206    22.506408 
    5180    358.35745    11.534013   -106.57667    1286.0759     22.48811 
    5190    357.56476    11.508499   -106.55116    1300.9112    22.469011 
    5200    354.25322    11.401915   -106.44457     1321.656    22.449818 
    5210     348.8194    11.227023   -106.26966    1348.2065    22.431121 
    5220    342.07407     11.00992   -106.05253    1376.5208    22.413393 
    5230    335.02576    10.783064   -105.82566    1399.4863    22.397009 
    5240    328.66722     10.57841   -105.62099    1411.6307    22.382256 
    5250    323.86632    10.423889   -105.46645    1410.2968    22.369342 
    5260    321.19868    10.338029   -105.38059     1396.827    22.358416 
    5270    320.82861    10.326118   -105.36868    1374.8101    22.349589 
    5280    322.55815    10.381784   -105.42436    1348.2084    22.342951 
    5290    325.94586     10.49082   -105.53341    1322.2689     22.33858 
    5300    330.40741    10.634419   -105.67702    1299.2449     22.33655 
    5310    335.31456    10.792359   -105.83497    1282.9476    22.336937 
    5320    340.18104    10.948991    -105.9916    1275.0805    22.339827 
    5330    344.83821    11.098885   -106.14149    1267.5021    22.345315 
    5340    349.39462    11.245537   -106.28814    1258.1111    22.353493 
    5350     353.9538    11.392278   -106.43489    1249.9138     22.36443 
    5360    358.37123    11.534456   -106.57707    1236.0655    22.378154 
    5370    362.28434    11.660403   -106.70303    1208.9907    22.394629 
    5380    365.30643    11.757671    -106.8003    1167.3296    22.413745 
    5390     367.1803    11.817983   -106.86062    1116.3528    22.435328 
    5400    367.80676    11.838146   -106.88078    1071.3688     22.45916 
    5410    367.15258    11.817091   -106.85973    1051.4213    22.485004 
    5420     365.2212    11.754928   -106.79756    1072.3104     22.51261 
    5430     362.1056     11.65465   -106.69728    1139.9028    22.541707 
    5440    358.08985      11.5254   -106.56802    1244.9238    22.571989 
    5450    353.62387    11.381659   -106.42427    1364.1105    22.603102 
    5460    349.18255    11.238711   -106.28131    1465.6141    22.634644 
    5470    345.29954    11.113734   -106.15632    1534.2762    22.666178 
    5480    342.55002    11.025238   -106.06781    1581.4629    22.697254 
    5490    341.39224    10.987974   -106.03055    1631.3113    22.727437 
    5500    342.03191    11.008563   -106.05114    1690.4693    22.756341 
    5510    344.36155    11.083544   -106.12613    1741.4855    22.783661 
    5520    348.01694    11.201195   -106.24379    1757.4474    22.809198 
    5530    352.46793    11.344454   -106.38706    1719.2445    22.832879 
    5540    357.13456    11.494653   -106.53727    1623.5604    22.854742 
    5550    361.48892    11.634801   -106.67743    1483.6049    22.874927 
    5560    365.13204    11.752058   -106.79469    1324.5627    22.893649 
    5570    367.82307    11.838671   -106.88131    1166.0875    22.911172 
    5580    369.43899    11.890681   -106.93332    1017.6052     22.92778 
    5590    370.00023    11.908744   -106.95138    896.00836    22.943746 
    5600     369.7391     11.90034   -106.94296    805.71018    22.959319 
    5610    369.07806    11.879064   -106.92168    737.40451    22.974701 
    5620    368.40654     11.85745   -106.90007    685.06893     22.99005 
    5630    367.82934    11.838873   -106.88149     648.8943    23.005477 
    5640    367.19364    11.818412   -106.86104    629.39255    23.021036 
    5650     366.2251    11.787239   -106.82988    617.44644    23.036724 
    5660    364.63876    11.736182   -106.77882    602.78708    23.052478 
    5670    362.36279    11.662928   -106.70556    590.60604    23.068179 
    5680    359.65234     11.57569   -106.61831    596.97696    23.083668 
    5690    357.06415    11.492387     -106.535    629.93657    23.098754 
    5700    355.35942    11.437519   -106.48011    683.54918    23.113249 
    5710    355.21695    11.432933   -106.47553    747.72613       23.127 
    5720    356.79976    11.483877   -106.52648    807.95997    23.139918 
    5730    359.48484    11.570299   -106.61293    850.34398    23.152007 
    5740    362.17604    11.656917   -106.69957    878.34444    23.163359 
    5750    363.94793    11.713946    -106.7566    908.06757    23.174119 
    5760    364.47253    11.730831   -106.77348    947.79327    23.184443 
    5770    364.02358    11.716381   -106.75901    995.12963     23.19448 
    5780    363.13399    11.687749   -106.73037    1039.0461    23.204362 
    5790    362.21748    11.658251   -106.70087     1068.632    23.214202 
    5800    361.39767    11.631864   -106.67449    1079.6226    23.224094 
    5810    360.52454    11.603762   -106.64639    1063.3183    23.234117 
    5820    359.45967    11.569489   -106.61211    1006.7916     23.24432 
    5830    358.37163    11.534469   -106.57708    904.44608    23.254721 
    5840    357.60185    11.509693   -106.55229    761.10255    23.265316 
    5850    357.42322    11.503944   -106.54654    591.32189    23.276109 
    5860    357.89859    11.519244   -106.56184    410.72822    23.287142 
    5870     358.8035    11.548369   -106.59098    228.98741    23.298502 
    5880    359.70321    11.577327   -106.61994    45.299788    23.310309 
    5890     360.1304    11.591077    -106.6337    -143.6382    23.322685 
    5900    359.74981    11.578827   -106.62145   -326.85455     23.33573 
    5910    358.40185    11.535442   -106.57807   -479.98635    23.349497 
    5920     356.0667    11.460283   -106.50291   -576.73558    23.363981 
    5930    352.85853    11.357026   -106.39964   -600.52938    23.379131 
    5940    349.02835    11.233748   -106.27636   -551.80534     23.39487 
    5950    344.91168     11.10125   -106.14386   -445.60296    23.411111 
    5960    340.88217    10.971557   -106.01415   -305.62744    23.427768 
    5970    337.36628    10.858396   -105.90098    -157.8075    23.444762 
    5980    334.80014    10.775802   -105.81838   -25.919706    23.462022 
    5990    333.56348    10.735999   -105.77857    67.311674    23.479478 
    6000    333.89348    10.746621    -105.7892    106.41423    23.497058 
    6010    335.82049    10.808643   -105.85122    88.585915    23.514703 
    6020    339.15545    10.915981   -105.95857    21.480663    23.532376 
    6030    343.49166    11.055546   -106.09814   -83.292829    23.550077 
    6040    348.25805    11.208956   -106.25157    -210.3876    23.567834 
    6050    352.82944    11.356089   -106.39871   -345.92378      23.5857 
    6060     356.6096    11.477757   -106.52039   -477.49312    23.603752 
    6070    359.14688    11.559421   -106.60206   -583.63932    23.622085 
    6080    360.27209    11.595637   -106.63827   -650.50412    23.640812 
    6090    360.10955    11.590405   -106.63303   -677.60644    23.660057 
    6100    358.96721    11.553638   -106.59626   -664.75561    23.679955 
    6110    357.11888    11.494148   -106.53677   -600.66259     23.70065 
    6120    354.68899     11.41594   -106.45856   -475.85371    23.722284 
    6130    351.74379    11.321147   -106.36377   -295.74404    23.744976 
    6140    348.39027    11.213211   -106.25583   -76.700239    23.768806 
    6150    344.84443    11.099086    -106.1417      157.678    23.793801 
    6160    341.39027    10.987911   -106.03052     386.9861    23.819935 
    6170    338.25529    10.887009   -105.92962    604.21981    23.847123 
    6180    335.56723    10.800492    -105.8431    803.37748    23.875221 
    6190    333.42933    10.731682   -105.77428    976.49362    23.904022 
    6200    332.04314    10.687066   -105.72966    1117.2312    23.933269 
    6210    331.71572    10.676528   -105.71912    1219.0754     23.96267 
    6220    332.71316    10.708631   -105.75122    1277.0828     23.99194 
    6230     335.1012    10.785492   -105.82809     1294.361    24.020842 
    6240    338.68015    10.900683   -105.94329    1283.2959    24.049209 
    6250    343.02624    11.040566   -106.08318    1254.9012    24.076962 
    6260     347.5892    11.187428   -106.23005    1213.9269    24.104115 
    6270    351.83911    11.324215   -106.36684    1160.7616     24.13077 
    6280    355.43197    11.439854   -106.48248    1095.9461    24.157127 
    6290    358.28061    11.531539   -106.57417    1028.6908    24.183467 
    6300    360.41807    11.600335   -106.64296    968.02499    24.210123 
    6310    361.85281    11.646513   -106.68914    907.15837    24.237433 
    6320    362.52231    11.668062   -106.71069    835.26824    24.265707 
    6330    362.26077    11.659644   -106.70228    751.48281    24.295196 
    6340    360.85792    11.614492   -106.65713    659.59785    24.326081 
    6350    358.24088    11.530261   -106.57289    568.69729     24.35846 
    6360    354.58245    11.412511   -106.45513    492.35915    24.392355 
    6370    350.35735    11.276523   -106.31913    429.27285    24.427722 
    6380     346.2772    11.145201   -106.18779    377.33596    24.464475 
    6390    343.02317    11.040467   -106.08305    342.10003    24.502481 
    6400    341.04934    10.976938   -106.01952    326.83337    24.541543 
    6410    340.47034    10.958302   -106.00088    336.37629    24.581386 
    6420    341.12704    10.979439   -106.02203    367.38047    24.621685 
    6430    342.74095    11.031383   -106.07398    408.32687    24.662103 
    6440     344.9582    11.102747   -106.14535    449.33604    24.702297 
    6450    347.34638    11.179613   -106.22223    483.96768     24.74192 
    6460    349.44451    11.247143   -106.28976    508.26728     24.78062 
    6470    350.92087     11.29466   -106.33729    521.64371    24.818048 
    6480     351.6893    11.319393   -106.36202    522.19016    24.853868 
    6490    351.92473    11.326971   -106.36959    507.52627     24.88779 
    6500    352.00071    11.329416   -106.37203    477.20864    24.919615 
    6510    352.30878    11.339332   -106.38194    427.26209     24.94927 
    6520     353.0688    11.363793    -106.4064    355.82671    24.976832 
    6530    354.21839    11.400794   -106.44341    268.23423    25.002532 
    6540    355.46678    11.440974   -106.48359     174.4175    25.026737 
    6550      356.502    11.474294   -106.51691    85.308177    25.049884 
    6560    357.18687    11.496336   -106.53895    14.962225    25.072419 
    6570    357.63254    11.510681   -106.55329   -26.917959    25.094736 
    6580    358.12465     11.52652   -106.56912   -40.230559    25.117147 
    6590    358.96659    11.553618   -106.59621   -36.717394     25.13986 
    6600    360.35409    11.598276   -106.64087   -36.529085    25.162981 
    6610    362.32687    11.661772   -106.70436    -47.27785    25.186525 
    6620      364.802    11.741436   -106.78403   -59.352425    25.210455 
    6630    367.59392    11.831296   -106.87389   -56.684526    25.234722 
    6640    370.41131    11.921975   -106.96458   -29.438208    25.259311 
    6650    372.82006    11.999503   -107.04212    18.584989    25.284257 
    6660     374.3751    12.049553   -107.09217    87.848316    25.309658 
    6670    374.89934    12.066426   -107.10904    178.75783    25.335668 
    6680    374.56865    12.055783   -107.09839    280.26964    25.362477 
    6690    373.77656    12.030289   -107.07289    372.12099    25.390295 
    6700    372.94516    12.003529   -107.04612    433.82236    25.419315 
    6710    372.43124    11.986988   -107.02958    465.71561    25.449687 
    6720    372.42995    11.986947   -107.02954    483.06145    25.481501 
    6730    372.88052    12.001449   -107.04405     501.6451    25.514786 
    6740    373.47612    12.020619   -107.06323    533.65438    25.549511 
    6750     373.7789    12.030364   -107.07298    584.29547    25.585588 
    6760    373.40028    12.018178    -107.0608    653.78757    25.622873 
    6770    372.17656    11.978792   -107.02141    734.45358    25.661152 
    6780    370.29299    11.918167   -106.96077    811.58346    25.700137 
    6790    368.26292    11.852828   -106.89542    874.88903    25.739471 
    6800    366.80164    11.805795   -106.84837      919.445    25.778746 
    6810    366.68695    11.802104   -106.84467    939.50353    25.817515 
    6820    368.49302    11.860234   -106.90279    940.07488    25.855316 
    6830     372.3272     11.98364   -107.02621     931.7802     25.89173 
    6840    377.73649    12.157742   -107.20034    925.61373    25.926429 
    6850    383.79225    12.352651   -107.39527    928.33756    25.959213 
    6860    389.28133    12.529322   -107.57197    942.69521    25.990023 
    6870    393.00008    12.649012   -107.69168    970.31345    26.018927 
    6880    394.06907    12.683419    -107.7261    1008.0457    26.046076 
    6890    392.11086    12.620392   -107.66307    1058.9722     26.07166 
    6900    387.19238    12.462087   -107.50475    1139.6491    26.095873 
    6910    379.82175    12.224858   -107.26751    1258.9737    26.118902 
    6920    370.94615     11.93919   -106.98181    1405.9854    26.140938 
    6930     361.8229    11.645551   -106.68814    1558.1639    26.162197 
    6940     353.7805      11.3867   -106.42927    1693.2244    26.182946 
    6950     347.9863    11.200209   -106.24276    1800.9183    26.203497 
    6960    345.26389    11.112586   -106.15513    1880.6764    26.224211 
    6970    345.91952    11.133688   -106.17624    1937.1617    26.245479 
    6980    349.69769    11.255291   -106.29786    1973.8092    26.267696 
    6990     355.8988    11.454879   -106.49746    1989.9639    26.291237 
    7000    363.56038    11.701473   -106.74408     1994.626     26.31644 
    7010    371.70399    11.963581    -107.0062    2003.3175    26.343579 
    7020    379.46249    12.213295   -107.25593    2023.4526    26.372833 
    7030    386.07335    12.426071   -107.46872    2055.6104    26.404257 
    7040    390.86244    12.580211   -107.62287    2096.9256    26.437775 
    7050    393.27295    12.657795   -107.70046    2143.5894    26.473195 
    7060    392.96228    12.647796   -107.69046    2190.6852     26.51023 
    7070     389.8915    12.548961   -107.59162    2233.5272    26.548522 
    7080    384.31283    12.369407   -107.41206    2265.6108    26.587677 
    7090    376.78757      12.1272   -107.16984    2279.2665    26.627288 
    7100    368.21926    11.851423   -106.89404    2281.3302    26.666952 
    7110    359.74262    11.578595   -106.62119    2282.5784    26.706281 
    7120    352.44422    11.343691   -106.38627    2280.5799     26.74491 
    7130    347.05443    11.170216   -106.21279     2266.656    26.782509 
    7140    343.87386    11.067847   -106.11043    2244.4226    26.818785 
    7150    342.82671    11.034144   -106.07673    2210.0147    26.853491 
    7160    343.59502    11.058872   -106.10147    2162.2008     26.88644 
    7170    345.85747    11.131691   -106.17429    2114.9284    26.917516 
    7180    349.43594    11.246867   -106.28946     2073.115     26.94666 
    7190    354.28837    11.403046   -106.44564     2032.114    26.973848 
    7200    360.37899    11.599078   -106.64167    1985.3402    26.999083 
    7210    367.50104    11.828306   -106.87091    1917.9234    27.022389 
    7220    375.13868     12.07413   -107.11675    1818.5366    27.043814 
    7230    382.53537    12.312198   -107.35483    1693.7713     27.06344 
    7240    388.87722    12.516315   -107.55896    1557.6276    27.081376 
    7250    393.43112    12.662886   -107.70554    1425.7187    27.097767 
    7260    395.63781     12.73391   -107.77658    1306.8493    27.112778 
    7270    395.18409    12.719307   -107.76198     1205.531    27.126588 
    7280    392.07317    12.619179   -107.66184    1123.4607    27.139382 
    7290    386.72776    12.447133   -107.48978    1063.3854    27.151341 
    7300    379.90678    12.227594   -107.27023    1019.5053    27.162637 
    7310     372.4902    11.988886    -107.0315    984.99918    27.173421 
    7320    365.36132    11.759438   -106.80204    963.17392    27.183837 
    7330    359.31597    11.564863   -106.60745    964.80756     27.19403 
    7340    355.01315    11.426374   -106.46895    994.27317    27.204169 
    7350    352.87692    11.357618   -106.40019    1045.5251    27.214451 
    7360    352.97825    11.360879   -106.40346    1107.3386    27.225096 
    7370    354.99741    11.425867   -106.46846    1169.6235    27.236345 
    7380    358.33573    11.533314   -106.57592    1222.3757    27.248444 
    7390    362.35302    11.662613   -106.70523    1258.4077     27.26163 
    7400    366.55265    11.797782   -106.84041    1279.1738    27.276102 
    7410    370.55535    11.926611   -106.96925    1295.7177    27.292009 
    7420    373.98169    12.036891   -107.07953    1319.1467    27.309454 
    7430    376.41013    12.115052    -107.1577    1357.5182    27.328491 
    7440    377.43795    12.148133   -107.19079    1412.9307    27.349132 
    7450    376.77604    12.126829   -107.16949    1478.1358    27.371356 
    7460    374.35489    12.048903   -107.09156    1539.9846    27.395129 
    7470    370.37269    11.920732   -106.96337     1592.074    27.420427 
    7480    365.33176    11.758486   -106.80111    1636.4975    27.447239 
    7490    359.96401    11.585721   -106.62833    1674.0001    27.475573 
    7500    355.01816    11.426535   -106.46913    1707.6358    27.505436 
    7510    351.03104    11.298207    -106.3408    1748.2223     27.53681 
    7520    348.16522    11.205968   -106.24857    1803.5992     27.56965 
    7530    346.25568    11.144508   -106.18712     1863.383    27.603874 
    7540    344.99234    11.103846   -106.14646    1900.5964    27.639358 
    7550    344.16575    11.077242   -106.11986    1898.9988    27.675931 
    7560    343.75702    11.064087    -106.1067    1857.3606    27.713384 
    7570    343.82758    11.066358   -106.10897    1775.2197    27.751485 
    7580    344.44708    11.086297   -106.12891    1657.6285    27.789985 
    7590    345.68244    11.126057   -106.16867    1517.6796     27.82863 
    7600    347.58549    11.187309   -106.22993    1370.4583    27.867173 
    7610    350.18579    11.271002   -106.31362    1229.1733    27.905393 
    7620    353.40809    11.374714   -106.41734    1103.5569     27.94312 
    7630    357.01269    11.490731   -106.53336    997.27698    27.980259 
    7640    360.65644    11.608007   -106.65064    908.27636    28.016803 
    7650    364.01441    11.716086   -106.75872    828.06168    28.052827 
    7660    366.86711    11.807903   -106.85054     746.4925    28.088443 
    7670    369.16825    11.881967    -106.9246    653.96406    28.123776 
    7680    371.00236    11.940999   -106.98363    558.39381     28.15894 
    7690    372.47112    11.988272    -107.0309    474.72774    28.194038 
    7700    373.71507    12.028309   -107.07093    411.27077    28.229156 
    7710     374.8678    12.065411   -107.10803    373.60859    28.264359 
    7720    375.92318    12.099379     -107.142    365.23406    28.299676 
    7730    376.68032    12.123748   -107.16637    375.98828    28.335102 
    7740    376.79569    12.127462    -107.1701    385.84464    28.370607 
    7750    375.82779    12.096309   -107.13895    387.72083    28.406134 
    7760    373.39863    12.018125   -107.06077    379.28496    28.441602 
    7770    369.45965    11.891346   -106.93398    358.43569    28.476904 
    7780    364.41279    11.728908   -106.77153     329.1379    28.511927 
    7790     358.9492    11.553058   -106.59566    306.50752    28.546575 
    7800    353.85921    11.389233   -106.43182    303.31246    28.580784 
    7810    349.84131    11.259914    -106.3025     322.1007    28.614536 
    7820     347.3058    11.178307   -106.22089    356.63249    28.647856 
    7830    346.29656    11.145823   -106.18841    397.45531    28.680821 
    7840    346.55888    11.154266   -106.19686    432.73043    28.713547 
    7850    347.68834    11.190619   -106.23322    456.27765    28.746173 
    7860    349.30308    11.242591    -106.2852    470.64147    28.778841 
    7870      351.126    11.301263   -106.34387     477.8164     28.81167 
    7880    353.00951    11.361885    -106.4045    477.28101    28.844726 
    7890    354.89283    11.422501   -106.46511    466.28768    28.878009 
    7900    356.69132    11.480387     -106.523    449.10201    28.911461 
    7910    358.29267    11.531928   -106.57454    439.42102    28.944975 
    7920     359.5315      11.5718   -106.61442      444.917    28.978416 
    7930    360.16506    11.592192   -106.63482    460.93422    29.011635 
    7940    359.97003    11.585915   -106.62855    488.56852    29.044488 
    7950    358.86222    11.550259   -106.59289    534.13332    29.076842 
    7960    356.96235     11.48911   -106.53173    600.22068    29.108575 
    7970    354.63405    11.414172   -106.45678    681.09027    29.139564 
    7980    352.38055    11.341641   -106.38424     768.9261    29.169674 
    7990    350.68873    11.287189   -106.32978    857.36641    29.198774 
    8000    349.89085    11.261508    -106.3041    934.20421    29.226758 
    8010    350.13868    11.269485   -106.31208    989.22812    29.253587 
    8020    351.38928    11.309737   -106.35234    1025.2175    29.279303 
    8030    353.33366    11.372318   -106.41493    1053.1576    29.304047 
    8040    355.45376    11.440555   -106.48318    1076.6081     29.32804 
    8050    357.18983    11.496432   -106.53907    1091.7619    29.351556 
    8060     358.1334    11.526802   -106.56944    1099.6218    29.374883 
    8070    358.15951    11.527642   -106.57027     1108.219     29.39829 
    8080    357.44413    11.504617   -106.54724    1116.5585    29.422022 
    8090    356.35613    11.469599   -106.51221    1123.5141    29.446303 
    8100    355.23431    11.433492   -106.47611    1137.7723     29.47135 
    8110    354.28479    11.402931   -106.44554     1162.179    29.497384 
    8120    353.65909    11.382792    -106.4254    1188.0007    29.524624 
    8130     353.5732    11.380028   -106.42263    1200.6177    29.553278 
    8140    354.33736    11.404623   -106.44722    1187.2324    29.583527 
    8150    356.20371    11.464693   -106.50729    1136.9142    29.615518 
    8160    359.18896    11.560775   -106.60338    1034.4903    29.649339 
    8170    363.03208    11.684469   -106.72708    872.73507    29.685013 
    8180    367.31422    11.822293   -106.86491    664.78643    29.722487 
    8190    371.63324    11.961304   -107.00393    441.42377    29.761622 
    8200    375.63911    12.090236   -107.13287    224.93189    29.802178 
    8210    378.92758    12.196078   -107.23872    18.288937    29.843818 
    8220    381.03316    12.263848   -107.30649   -175.52134    29.886143 
    8230    381.68646    12.284875   -107.32752   -332.18633    29.928738 
    8240    380.95866     12.26145   -107.30409   -427.64588    29.971191 
    8250    379.27617    12.207298   -107.24992   -448.60754    30.013118 
    8260    377.35069    12.145325   -107.18793   -394.23868    30.054172 
    8270    375.97307    12.100985   -107.14358   -277.90751    30.094059 
    8280    375.77559    12.094629   -107.13721   -117.10695    30.132568 
    8290    377.02365    12.134799   -107.17739    68.742515    30.169588 
    8300     379.4846    12.214007   -107.25661    247.67297    30.205134 
    8310    382.52092    12.311733   -107.35436    398.78598    30.239338 
    8320    385.41796    12.404976   -107.44761    525.26947    30.272443 
    8330     387.5382    12.473218   -107.51587    636.33876    30.304785 
    8340    388.39265    12.500719   -107.54337    741.61227    30.336774 
    8350     387.7672    12.480588   -107.52324    849.40473    30.368843 
    8360    385.81669     12.41781   -107.46045    976.38304    30.401406 
    8370    382.97408    12.326318   -107.36895     1140.209    30.434809 
    8380    379.71458    12.221409   -107.26403    1345.1246    30.469317 
    8390    376.42428    12.115508   -107.15812    1585.6616    30.505106 
    8400    373.44647    12.019664   -107.06227    1843.0373    30.542243 
    8410    371.12659    11.944997    -106.9876     2093.064     30.58068 
    8420    369.82538    11.903117   -106.94571    2305.4774    30.620258 
    8430    369.83915     11.90356   -106.94615    2464.7878    30.660731 
    8440     371.2574    11.949208   -106.99181    2582.1718     30.70179 
    8450    373.87914     12.03359    -107.0762      2669.45    30.743098 
    8460    377.25701     12.14231   -107.18493    2728.5404    30.784306 
    8470    380.81803    12.256924   -107.29955    2753.7703    30.825083 
    8480    383.94925    12.357705   -107.40035    2735.2217    30.865128 
    8490    386.06526     12.42581   -107.46846    2668.9486     30.90418 
    8500    386.72713    12.447113   -107.48977    2571.7278    30.942019 
    8510    385.73753    12.415262   -107.45792     2464.422    30.978457 
    8520    383.15771    12.332228   -107.37488     2352.276    31.013348 
    8530    379.28532    12.207592   -107.25023    2238.3115    31.046596 
    8540    374.68783    12.059619   -107.10224    2131.2133    31.078161 
    8550    370.07068    11.911012   -106.95362    2033.2022    31.108068 
    8560    366.08464    11.782718   -106.82532    1934.5296    31.136394 
    8570    363.23762    11.691085   -106.73368    1835.8057    31.163258 
    8580    361.85381    11.646546   -106.68914    1749.6421     31.18879 
    8590     361.9724    11.650363   -106.69296    1683.4621    31.213104 
    8600     363.4344    11.697418   -106.74002    1643.9555    31.236274 
    8610    365.99719    11.779903   -106.82251    1634.4081    31.258321 
    8620    369.34245    11.887573   -106.93019    1648.4477    31.279245 
    8630    373.04554     12.00676   -107.04938    1676.2124     31.29906 
    8640    376.55491    12.119712   -107.16235    1722.9597    31.317859 
    8650    379.28155    12.207471   -107.25012    1804.3887    31.335853 
    8660    380.65995    12.251836   -107.29449    1921.8252    31.353345 
    8670    380.28204    12.239673   -107.28233    2063.1337    31.370679 
    8680    378.01382    12.166668   -107.20933    2207.4414    31.388195 
    8690    374.07461    12.039882   -107.08253    2334.5544    31.406198 
    8700    369.02707    11.877423   -106.92006    2429.1211    31.424953 
    8710    363.62255    11.703474   -106.74609    2481.6656    31.444717 
    8720    358.56821    11.540796    -106.5834    2487.4621    31.465785 
    8730    354.36829    11.405618   -106.44822     2444.983     31.48852 
    8740    351.31434    11.307325   -106.34992    2356.0428    31.513367 
    8750    349.57399     11.25131    -106.2939    2226.3749    31.540832 
    8760    349.28065    11.241869   -106.28446    2062.0918    31.571422 
    8770    350.58498     11.28385   -106.32643    1877.5155    31.605584 
    8780    353.53265    11.378723   -106.42131    1691.0356     31.64367 
    8790    357.87133    11.518367   -106.56097     1511.203    31.685916 
    8800    363.02356    11.684195   -106.72681    1342.0106    31.732462 
    8810    368.29605    11.853894   -106.89652    1195.3497    31.783357 
    8820    373.12593    12.009348   -107.05198    1076.1318    31.838566 
    8830    377.22737    12.141356   -107.18399    978.77579     31.89796 
    8840    380.53658    12.247865    -107.2905    899.10874    31.961331 
    8850    383.00548    12.327329   -107.36996    832.09124    32.028385 
    8860    384.52149    12.376123   -107.41876     772.9474    32.098733 
    8870    384.95217    12.389984   -107.43263    725.79435    32.171867 
    8880    384.13191    12.363584   -107.40623    700.13421    32.247106 
    8890    381.94218    12.293106   -107.33575    700.04529    32.323575 
    8900    378.47339     12.18146    -107.2241    716.24659    32.400227 
    8910    374.09124    12.040417   -107.08305    731.70276    32.475916 
    8920     369.3999    11.889423   -106.93204    728.44373    32.549478 
    8930    365.07813    11.750323   -106.79293    695.64007    32.619813 
    8940    361.63664    11.639556   -106.68215    638.13302    32.685974 
    8950     359.2265    11.561984   -106.60459    563.95589    32.747229 
    8960    357.68125    11.512249   -106.55486    481.22104    32.803086 
    8970    356.73569    11.481815   -106.52442    409.36057    32.853293 
    8980    356.27343    11.466937   -106.50954    375.27654    32.897834 
    8990    356.36125    11.469764   -106.51237    391.77587    32.936927 
    9000    356.99261    11.490084   -106.53269    440.70249    32.970997 
    9010    357.92067    11.519955   -106.56257    498.84651    33.000637 
    9020    358.79833    11.548203   -106.59083    567.75351    33.026545 
    9030    359.32327    11.565098   -106.60773    650.96395    33.049466 
    9040    359.32902    11.565283   -106.60791    766.13964    33.070113 
    9050    358.75731    11.546882   -106.58951    928.56677     33.08913 
    9060    357.67956    11.512194   -106.55482    1135.8827    33.107077 
    9070    356.29392    11.467596   -106.51022    1372.2978    33.124429 
    9080    354.82768    11.420404   -106.46302    1615.7837    33.141577 
    9090     353.4569    11.376285    -106.4189    1844.3227    33.158832 
    9100    352.24394    11.337245   -106.37986    2042.7784    33.176438 
    9110    351.11884    11.301032   -106.34365    2204.7306    33.194565 
    9120    349.97034    11.264067   -106.30668    2325.2733     33.21332 
    9130    348.74241    11.224545   -106.26716    2397.5865    33.232744 
    9140    347.41387    11.181785    -106.2244    2427.0823     33.25282 
    9150    345.90031     11.13307   -106.17569    2430.3858    33.273477 
    9160    344.04389     11.07332   -106.11594    2427.1565    33.294607 
    9170    341.65078    10.996296   -106.03892    2425.9919    33.316098 
    9180    338.61531    10.898596   -105.94122    2422.6115    33.337858 
    9190    335.07574    10.784673   -105.82729    2409.9621    33.359822 
    9200    331.46652    10.668507   -105.71111    2388.7131    33.381964 
    9210     328.3697    10.568834   -105.61143    2354.4599    33.404306 
    9220    326.34426    10.503643   -105.54623    2307.9105    33.426933 
    9230    325.79222    10.485875   -105.52846      2258.17    33.449995 
    9240    326.87282    10.520656   -105.56324    2207.0989    33.473703 
    9250     329.5047    10.605365   -105.64796    2152.0091    33.498312 
    9260    333.42594    10.731573   -105.77417    2090.6377    33.524089 
    9270    338.24715    10.886747   -105.92935    2017.5455    33.551294 
    9280    343.50485     11.05597   -106.09858     1924.605    33.580158 
    9290    348.74293    11.224562   -106.26718    1816.6767     33.61088 
    9300    353.55909    11.379574    -106.4222    1707.1282    33.643623 
    9310    357.52151    11.507107   -106.54974    1597.9193    33.678492 
    9320    360.13627    11.591265   -106.63391     1499.136    33.715507 
    9330    360.91992    11.616488   -106.65914    1428.6126    33.754599 
    9340    359.54815    11.572336   -106.61499    1390.7831    33.795589 
    9350    356.07449    11.460534   -106.50317    1378.7788     33.83818 
    9360    351.05873    11.299098   -106.34172    1378.4638    33.881976 
    9370    345.50186    11.120245   -106.16284    1377.7674    33.926519 
    9380    340.55232    10.960941   -106.00352    1371.1306    33.971335 
    9390    337.10714    10.850055   -105.89262    1348.8523    34.015966 
    9400    335.57345    10.800692   -105.84326    1297.8637    34.059987 
    9410    335.80302    10.808081   -105.85067    1212.4628    34.103002 
    9420    337.20384    10.853167   -105.89577    1098.1385    34.144637 
    9430    338.97032    10.910023   -105.95264    965.24136    34.184531 
    9440    340.30907    10.953111   -105.99574    825.34696    34.222341 
    9450    340.65372    10.964204   -106.00684     687.8303    34.257743 
    9460    339.84387    10.938139   -105.98077    559.57022    34.290454 
    9470     338.1531     10.88372   -105.92633    447.71964    34.320261 
    9480    336.19172    10.820591   -105.86319    356.17613    34.347057 
    9490    334.75102    10.774221    -105.8168    281.01548    34.370873 
    9500    334.51332    10.766571   -105.80915    213.68458    34.391892 
    9510    335.72741    10.805647   -105.84823    158.09909    34.410447 
    9520    338.11141    10.882378   -105.92497    130.37359    34.427003 
    9530    341.02816    10.976256   -106.01887    146.11054    34.442115 
    9540    343.78125    11.064866   -106.10749    211.44599    34.456385 
    9550    345.88756     11.13266   -106.17528    321.90547    34.470419 
    9560     347.1967    11.174795   -106.21742    469.24372    34.484796 
    9570    347.82404    11.194987    -106.2376    646.74039    34.500047 
    9580    347.99828    11.200595   -106.24321    849.90147    34.516645 
    9590    347.93988    11.198715   -106.24132    1071.3884    34.534995 
    9600    347.79609    11.194087   -106.23669    1296.9865    34.555411 
    9610    347.59102    11.187487    -106.2301    1517.3056    34.578114 
    9620    347.16704     11.17384   -106.21646    1729.9675    34.603214 
    9630    346.22306    11.143458   -106.18608    1927.2362    34.630704 
    9640    344.46514    11.086878   -106.12951    2096.9971    34.660453 
    9650    341.77962    11.000442   -106.04307    2230.4054    34.692209 
    9660    338.36062    10.890399   -105.93302    2326.4317    34.725615 
    9670    334.74423    10.774003    -105.8166    2389.8686    34.760236 
    9680    331.73239    10.677064   -105.71965    2423.1072    34.795618 
    9690    330.16878    10.626738   -105.66931    2419.2036    34.831335 
    9700     330.6638    10.642671   -105.68524    2372.4956    34.867019 
    9710    333.39927    10.730714   -105.77329    2282.9262    34.902362 
    9720     338.0842    10.881502   -105.92409    2153.8347    34.937094 
    9730    344.07726    11.074394   -106.11699    1995.5799    34.970961 
    9740    350.54394    11.282529   -106.32515    1818.2412    35.003709 
    9750    356.61325    11.477874   -106.52051    1628.2987    35.035082 
    9760    361.52786    11.636055    -106.6787    1434.5364     35.06483 
    9770    364.75242     11.73984   -106.78249    1257.9646    35.092708 
    9780    365.97032    11.779039   -106.82169    1125.5601    35.118489 
    9790    365.03675    11.748991   -106.79164      1047.32    35.141966 
    9800    362.13868    11.655714   -106.69835    1015.7845    35.162972 
    9810    357.93195    11.520318   -106.56293    1010.8528     35.18141 
    9820    353.43816    11.375682   -106.41827    1013.6662    35.197287 
    9830    349.75338    11.257084   -106.29966    1015.1879    35.210747 
    9840    347.71692    11.191539   -106.23411    1007.3981     35.22208 
    9850    347.69215    11.190742   -106.23331    980.17709    35.231708 
    9860    349.49657    11.248818    -106.2914    925.77359    35.240142 
    9870     352.4855    11.345019   -106.38762    842.28584    35.247923 
    9880    355.76372    11.450531   -106.49315     735.9385    35.255561 
    9890    358.46992    11.537632   -106.58026    623.23811    35.263472 
    9900    359.98127    11.586277   -106.62891    521.83203    35.271927 
    9910    360.06008    11.588813   -106.63144    443.39457    35.281023 
    9920    358.87831    11.550777    -106.5934    388.39458    35.290681 
    9930    356.78674    11.483458   -106.52607    349.43223    35.300672 
    9940    354.21382    11.400647   -106.44325    335.16732    35.310663 
    9950    351.60933    11.316819   -106.35942     354.8146    35.320259 
    9960    349.35016    11.244106    -106.2867    403.28134    35.329075 
    9970    347.74244     11.19236   -106.23495    464.62529    35.336796 
    9980     347.0003    11.168474   -106.21107    517.13557    35.343236 
    9990    347.15079    11.173317   -106.21591    545.45495    35.348382 
   10000    348.01248    11.201052   -106.24366    553.57809    35.352433 
Loop time of 4.78274 on 1 procs for 5000 steps with 250 atoms

Performance: 45.162 ns/day, 0.531 hours/ns, 1045.425 timesteps/s
99.9% CPU use with 1 MPI tasks x no OpenMP threads

MPI task timing breakdown:
Section |  min time  |  avg time  |  max time  |%varavg| %total
---------------------------------------------------------------
Pair    | 4.511      | 4.511      | 4.511      |   0.0 | 94.32
Neigh   | 0.16639    | 0.16639    | 0.16639    |   0.0 |  3.48
Comm    | 0.017661   | 0.017661   | 0.017661   |   0.0 |  0.37
Output  | 0.075624   | 0.075624   | 0.075624   |   0.0 |  1.58
Modify  | 0.0078301  | 0.0078301  | 0.0078301  |   0.0 |  0.16
Other   |            | 0.004234   |            |       |  0.09

Nlocal:    250 ave 250 max 250 min
Histogram: 1 0 0 0 0 0 0 0 0 0
Nghost:    851 ave 851 max 851 min
Histogram: 1 0 0 0 0 0 0 0 0 0
Neighs:    0 ave 0 max 0 min
Histogram: 1 0 0 0 0 0 0 0 0 0
FullNghs:  8442 ave 8442 max 8442 min
Histogram: 1 0 0 0 0 0 0 0 0 0

Total # of neighbors = 8442
Ave neighs/atom = 33.768
Neighbor list builds = 500
Dangerous builds not checked

# Reset velocities and continue equilibration
unfix 2
velocity	all create ${temperature} 97295
velocity	all create 300.0 97295
fix 		3 all nve
timestep	0.0005
run		5000
Per MPI rank memory allocation (min/avg/max) = 4.73 | 4.73 | 4.73 Mbytes
Step Temp KinEng PotEng c_total_press c_disp[4] 
[...]
   52500    274.30937    8.8288599    -109.0337    422.47549    111.86139 
   52510     275.5431    8.8685685   -109.07341    364.61769    111.90746 
   52520    278.34373    8.9587089   -109.16355    258.14738    111.95505 
   52530    282.46221    9.0912654   -109.29612      115.793    112.00376 
   52540    287.40862    9.2504696   -109.45534   -39.126764    112.05306 
   52550    292.47652    9.4135838   -109.61847   -179.80589    112.10231 
   52560    296.86409     9.554801    -109.7597   -284.34296    112.15077 
   52570    299.86759    9.6514712   -109.85638   -342.77314    112.19768 
   52580    301.07831    9.6904392   -109.89535   -350.94306    112.24228 
   52590    300.42819    9.6695145   -109.87442   -299.03841    112.28386 
   52600    298.16388    9.5966358   -109.80153   -182.25104    112.32185 
   52610    294.76946     9.487384   -109.69227   -9.9233678    112.35584 
   52620    290.81727    9.3601795   -109.56506    196.74387    112.38556 
   52630    286.83803    9.2321047   -109.43697    419.33994    112.41087 
   52640    283.27981    9.1175807   -109.32244    645.51696    112.43179 
   52650    280.49668    9.0280033   -109.23286    855.70346    112.44845 
   52660    278.72626    8.9710209   -109.17588    1027.9292    112.46114 
   52670    278.07418    8.9500334   -109.15489    1143.9128    112.47029 
   52680    278.51258    8.9641435     -109.169    1193.7855     112.4765 
   52690    279.89208    9.0085437   -109.21341    1176.6655    112.48054 
   52700    281.93575    9.0743209   -109.27919    1099.3444    112.48331 
   52710    284.25234    9.1488821   -109.35376    976.88936    112.48584 
   52720    286.40056    9.2180244   -109.42291    833.20775    112.48918 
   52730    287.99917    9.2694769   -109.47437    692.95307    112.49439 
   52740    288.81012    9.2955778   -109.50047    578.00921    112.50252 
   52750     288.8423    9.2966136    -109.5015    503.68369    112.51459 
   52760    288.38312    9.2818344   -109.48671    467.67293    112.53153 
   52770    287.89107    9.2659975   -109.47086    455.55621    112.55419 
   52780    287.78568    9.2626053   -109.46746    457.64412    112.58327 
   52790     288.2782    9.2784576   -109.48332    471.52057    112.61925 
   52800    289.34496    9.3127922   -109.51766    498.70426    112.66238 
   52810    290.79715    9.3595321    -109.5644    541.05725    112.71266 
   52820    292.38428    9.4106148   -109.61549    594.92585    112.76987 
   52830     293.8873    9.4589909   -109.66387    650.30334    112.83352 
   52840    295.17422    9.5004112   -109.70529    696.22127    112.90291 
   52850    296.19079    9.5331305   -109.73801    727.01347    112.97704 
   52860    296.88496    9.5554727   -109.76036    749.34391    113.05463 
   52870    297.14747     9.563922   -109.76881    775.96964    113.13413 
   52880    296.84602    9.5542194   -109.75911    814.35232    113.21376 
   52890    295.93294    9.5248313   -109.72972    860.86985     113.2916 
   52900    294.52367    9.4794728   -109.68436    902.29273    113.36577 
   52910    292.90137     9.427258   -109.63213    921.81657    113.43454 
   52920    291.44918    9.3805181   -109.58538    900.06411    113.49643 
   52930    290.52407    9.3507427    -109.5556    824.31959    113.55032 
   52940    290.37382    9.3459068   -109.55076    697.67918    113.59543 
   52950    291.05634    9.3678743   -109.57274    532.83757    113.63143 
   52960    292.36857    9.4101095   -109.61498     344.1796    113.65836 
   52970    293.93216    9.4604347   -109.66531    143.80676    113.67665 
   52980    295.34112    9.5057832   -109.71067   -54.067818    113.68697 
   52990    296.25768    9.5352834   -109.74017   -232.88126    113.69017 
   53000    296.47531    9.5422881   -109.74718   -378.87116     113.6872 
   53010    296.02009    9.5276364   -109.73252   -483.70079    113.67902 
   53020    295.16671    9.5001695   -109.70504   -545.01822    113.66657 
   53030    294.32591    9.4731079   -109.67797   -565.55385     113.6507 
   53040     293.8898    9.4590711   -109.66393   -552.09263    113.63218 
   53050    294.10295    9.4659316   -109.67079   -512.24376    113.61168 
   53060    294.95464    9.4933439   -109.69821   -448.60353    113.58979 
   53070    296.16059    9.5321584   -109.73703   -353.92283    113.56706 
   53080    297.31767    9.5694001   -109.77428   -217.66974    113.54394 
   53090    298.04159       9.5927   -109.79759   -44.750037    113.52085 
   53100     298.0352    9.5924943   -109.79738    151.07225    113.49815 
   53110    297.20751    9.5658543   -109.77074    355.91016    113.47621 
   53120    295.70963     9.517644   -109.72253    554.79147    113.45545 
   53130    293.86124     9.458152   -109.66303    731.46116    113.43634 
   53140    292.05742    9.4000946   -109.60496     872.3276     113.4194 
   53150    290.67149    9.3554876   -109.56035    971.31617    113.40512 
   53160     289.9585    9.3325394    -109.5374    1028.4357    113.39392 
   53170    289.99321    9.3336567   -109.53852    1049.1745     113.3861 
   53180    290.67259    9.3555229   -109.56039    1041.1554    113.38178 
   53190     291.7568    9.3904189   -109.59529    1011.0785    113.38086 
   53200    292.94014    9.4285056   -109.63339     963.0237    113.38298 
   53210    293.95897    9.4612977   -109.66618      902.135    113.38759 
   53220    294.64998    9.4835383   -109.68842    833.01397    113.39391 
   53230     294.9146    9.4920553   -109.69694    759.84067    113.40105 
   53240    294.66393    9.4839872   -109.68887    686.67473    113.40812 
   53250    293.81717    9.4567336   -109.66162     621.0574    113.41438 
   53260    292.36064    9.4098541   -109.61474    570.93253    113.41927 
   53270    290.41289    9.3471642   -109.55204    538.80459    113.42246 
   53280    288.18657    9.2755085   -109.48038    528.51723    113.42375 
   53290    285.86658    9.2008379   -109.40571    552.48806    113.42308 
   53300    283.55817    9.1265398   -109.33141    619.24772    113.42043 
   53310    281.29124    9.0535767   -109.25845     725.1732    113.41584 
   53320     279.0884    8.9826767   -109.18755    854.12668     113.4093 
   53330    277.03652    8.9166353    -109.1215     989.8671    113.40077 
   53340    275.30109    8.8607792   -109.06564    1124.0556    113.39012 
   53350    274.07193    8.8212177   -109.02608    1249.5216    113.37715 
   53360    273.50533    8.8029814   -109.00784    1354.8844    113.36167 
   53370    273.69264      8.80901   -109.01387    1428.5904    113.34352 
   53380    274.62687    8.8390789   -109.04394    1463.5972    113.32267 
   53390    276.14583    8.8879678   -109.09284    1459.9384    113.29927 
   53400    277.93884    8.9456772   -109.15056    1422.6253    113.27365 
   53410    279.62063     8.999807    -109.2047    1362.8206    113.24633 
   53420    280.82587    9.0385985   -109.24349    1294.4138    113.21791 
   53430    281.37357    9.0562266   -109.26112    1228.3708    113.18911 
   53440    281.35484    9.0556239   -109.26051     1168.117    113.16071 
   53450    281.05845    9.0460843   -109.25096    1109.9662    113.13355 
   53460    280.81567    9.0382704   -109.24314    1053.7349    113.10851 
   53470    280.89647    9.0408709   -109.24574    1001.2723    113.08651 
   53480    281.49414    9.0601074   -109.26497    953.09437     113.0685 
   53490    282.73654    9.1000951   -109.30496    905.06468    113.05537 
   53500    284.67426    9.1624619   -109.36733    852.70823     113.0479 
   53510    287.27289    9.2461009   -109.45097    791.67731    113.04671 
   53520    290.40603    9.3469436   -109.55182    715.70589    113.05217 
   53530    293.87844    9.4587057   -109.66358     623.5048     113.0644 
   53540    297.40981    9.5723655   -109.77725    527.60775    113.08322 
   53550     300.6265    9.6758974   -109.88079    442.05422    113.10817 
   53560    303.13714    9.7567041    -109.9616    368.38815    113.13862 
   53570    304.62428    9.8045689   -110.00947     298.2846    113.17372 
   53580    304.90212    9.8135114   -110.01842    229.78881    113.21246 
   53590    303.88142    9.7806595   -109.98557    175.73438    113.25367 
   53600    301.57737    9.7065016   -109.91141    153.37399    113.29613 
   53610    298.18791    9.5974092   -109.80231     170.6382    113.33855 
   53620    294.09021    9.4655218   -109.67041    223.59967    113.37975 
   53630    289.77282    9.3265631   -109.53144    304.37071    113.41865 
   53640    285.80058    9.1987134   -109.40358    404.02327    113.45435 
   53650    282.70457    9.0990661   -109.30392    512.96199    113.48615 
   53660    280.84246    9.0391325   -109.24399    620.28599    113.51364 
   53670    280.31203    9.0220602   -109.22692    714.24358    113.53672 
   53680    280.93658    9.0421618   -109.24703    783.62438    113.55562 
   53690    282.36072     9.087999   -109.29287    819.80125    113.57084 
   53700    284.21874    9.1478006   -109.35268    818.15698    113.58304 
   53710    286.22013    9.2122172    -109.4171     782.9662    113.59297 
   53720    288.17376    9.2750961   -109.47998    726.34501    113.60137 
   53730    289.97876    9.3331915   -109.53807    660.99833    113.60892 
   53740    291.53516    9.3832853   -109.58817    595.19284    113.61623 
   53750    292.66534    9.4196612   -109.62455    532.57591    113.62379 
   53760    293.17579    9.4360904   -109.64098    474.39776    113.63194 
   53770    292.98999    9.4301103     -109.635    423.53374    113.64089 
   53780      292.158     9.403332   -109.60822    381.90043    113.65068 
   53790    290.78711    9.3592089    -109.5641    344.49754    113.66127 
   53800    289.00966    9.3020001   -109.50688    303.64937    113.67249 
   53810    286.99132    9.2370385   -109.44192    255.83182    113.68416 
   53820    284.93829      9.17096   -109.37584    200.21273    113.69608 
   53830    283.08933    9.1114498   -109.31632    134.54843    113.70809 
   53840    281.69073    9.0664347   -109.27131      54.4843    113.72008 
   53850    280.92368    9.0417466   -109.24662   -40.063386    113.73202 
   53860    280.85642    9.0395819   -109.24445   -145.00933    113.74395 
   53870    281.54057    9.0616018   -109.26647   -256.67348    113.75602 
   53880    283.10955    9.1121007   -109.31696   -372.05589    113.76847 
   53890     285.7528    9.1971757   -109.40203   -486.75628    113.78161 
   53900    289.56777    9.3199633   -109.52482   -596.11326    113.79575 
   53910    294.40931    9.4757921   -109.68066   -697.68262    113.81123 
   53920    299.84327    9.6506884   -109.85557   -790.93945    113.82835 
   53930    305.21097    9.8234519   -110.02835   -874.23492    113.84734 
   53940    309.77013    9.9701921    -110.1751   -942.67692    113.86832 
   53950    312.86913    10.069936   -110.27485   -993.54461    113.89126 
   53960    314.04883    10.107905   -110.31283   -1020.9686    113.91603 
   53970    313.12112    10.078046   -110.28296   -1009.5916    113.94233 
   53980    310.25639    9.9858425   -110.19075   -950.51266     113.9697 
   53990    305.98641    9.8484101    -110.0533   -848.01095    113.99758 
   54000    301.06955     9.690157   -109.89503    -715.0291    114.02532 
   54010    296.27884    9.5359645   -109.74083    -568.7473    114.05228 
   54020    292.25648    9.4065017   -109.61135   -419.48908    114.07786 
   54030    289.43982    9.3158452   -109.52069   -272.39366    114.10151 
   54040    287.97247    9.2686175   -109.47347   -136.26213    114.12285 
   54050    287.66248    9.2586401    -109.4635   -17.828929    114.14164 
   54060    288.06347    9.2715464   -109.47642    82.591681    114.15777 
   54070    288.63327    9.2898858   -109.49477    163.42263    114.17127 
   54080    288.87643    9.2977122    -109.5026     218.8037    114.18227 
   54090     288.5071     9.285825   -109.49071    244.81949    114.19099 
   54100     287.5931    9.2564071   -109.46129    248.29286    114.19766 
   54110    286.55768    9.2230815   -109.42795    243.23843    114.20254 
   54120    285.97081    9.2041925   -109.40905    238.57314    114.20589 
   54130    286.28068    9.2141659   -109.41902    236.65206    114.20795 
   54140    287.64208    9.2579836   -109.46284    234.54989    114.20894 
   54150     289.8965     9.330544   -109.53541    230.94297    114.20905 
   54160    292.67125    9.4198512   -109.62472    232.03388    114.20833 
   54170    295.49335    9.5106827   -109.71556    248.49378    114.20673 
   54180    297.90654    9.5883532   -109.79324    291.47633    114.20411 
   54190    299.56358    9.6416862   -109.84658    364.77914    114.20023 
   54200    300.27904     9.664714   -109.86961    462.64454    114.19485 
   54210    300.02736    9.6566134   -109.86151    577.42058    114.18765 
   54220    298.89648    9.6202152   -109.82511    700.34033    114.17832 
   54230    297.13416    9.5634936   -109.76838    814.64408    114.16647 
   54240    295.20788    9.5014946   -109.70637     900.2046    114.15169 
   54250    293.71704    9.4535108   -109.65837    938.40009     114.1336 
   54260    293.18769    9.4364734   -109.64133    918.47653    114.11186 
   54270    293.92401    9.4601724   -109.66502    841.49837    114.08622 
   54280    295.95134    9.5254235   -109.73028    716.26883    114.05665 
   54290     299.0334    9.6246221   -109.82949    551.14971    114.02329 
   54300    302.76511      9.74473    -109.9496    351.25689    113.98655 
   54310    306.69516    9.8712218    -110.0761    123.68447    113.94707 
   54320    310.39623    9.9903435   -110.19523   -117.88058    113.90566 
   54330    313.43275    10.088076   -110.29297   -354.72446    113.86327 
   54340    315.36348    10.150218   -110.35512   -571.15168    113.82084 
   54350    315.84736    10.165792   -110.37069   -757.14559    113.77928 
   54360    314.75207     10.13054   -110.33544   -903.31283    113.73937 
   54370    312.18913    10.048049   -110.25294   -993.14496    113.70173 
   54380    308.47475    9.9284993   -110.13338   -1014.3261    113.66685 
   54390    304.07956    9.7870366   -109.99191   -976.21927    113.63509 
   54400    299.54684    9.6411474   -109.84601   -905.57282    113.60672 
   54410    295.39893    9.5076439    -109.7125   -826.65134    113.58195 
   54420    292.10055    9.4014828   -109.60633   -758.23082    113.56092 
   54430    290.01479    9.3343511   -109.53919   -714.00058    113.54373 
   54440    289.34082    9.3126588    -109.5175    -695.6881    113.53038 
   54450    290.12374    9.3378578    -109.5427   -696.49906    113.52081 
   54460    292.26786    9.4068679   -109.61172    -711.4845     113.5148 
   54470    295.47601    9.5101246   -109.71499   -737.45144    113.51199 
   54480    299.19018    9.6296681   -109.83455   -766.99908    113.51185 
   54490    302.65452    9.7411706   -109.94607   -787.12322    113.51366 
   54500    305.09416    9.8196922    -110.0246   -787.40356    113.51659 
   54510    305.93081    9.8466205   -110.05153   -759.63114     113.5197 
   54520    304.96539    9.8155476   -110.02045    -699.3486    113.52204 
   54530    302.45438    9.7347289   -109.93962   -604.41225    113.52267 
   54540    299.05546    9.6253321    -109.8302   -478.21825    113.52081 
   54550    295.63827    9.5153472    -109.7202   -326.23735    113.51584 
   54560    293.00457    9.4305794   -109.63542   -154.58544    113.50739 
   54570     291.6905    9.3882853   -109.59312    23.649974    113.49542 
   54580    291.92307    9.3957706   -109.60061    195.72396    113.48014 
   54590    293.70104    9.4529959   -109.65784    351.41777    113.46201 
   54600    296.88599     9.555506   -109.76035    477.78222    113.44167 
   54610    301.22998    9.6953208   -109.90018    562.55785    113.41987 
   54620    306.30979    9.8588183   -110.06369    604.33186    113.39737 
   54630    311.45292    10.024354   -110.22924    617.22552    113.37496 
   54640    315.88717    10.167074   -110.37197    612.41726    113.35343 
   54650    319.03334    10.268336   -110.47324    585.28977    113.33355 
   54660    320.68593    10.321525   -110.52643    523.92741      113.316 
   54670    320.99208    10.331379   -110.53627    423.83082    113.30137 
   54680    320.31024    10.309434   -110.51432    293.67982    113.29011 
   54690    319.02586    10.268095   -110.47298    144.92096     113.2825 
   54700    317.38325    10.215226   -110.42011   -13.508465    113.27866 
   54710    315.43616    10.152558   -110.35744   -174.12958    113.27855 
   54720    313.12123     10.07805   -110.28294   -331.04304    113.28208 
   54730    310.38177    9.9898781   -110.19476   -482.05697    113.28907 
   54740    307.29059    9.8903861   -110.09527    -630.4053     113.2993 
   54750    304.12089    9.7883669   -109.99324   -781.71847    113.31245 
   54760    301.28492     9.697089   -109.90195   -933.32706    113.32818 
   54770    299.14379     9.628175   -109.83303   -1074.8512    113.34609 
   54780    297.80058    9.5849428    -109.7898   -1200.3992    113.36579 
   54790    297.02577    9.5600049   -109.76487   -1311.4923    113.38689 
   54800    296.41241    9.5402634   -109.74514   -1412.5826    113.40894 
   54810    295.62899    9.5150485   -109.71992   -1504.0723    113.43146 
   54820    294.55037    9.4803322   -109.68521   -1578.4812    113.45391 
   54830    293.20871    9.4371498   -109.64202   -1628.9746    113.47575 
   54840    291.66964    9.3876137   -109.59249   -1650.4808    113.49652 
   54850    289.90895    9.3309446   -109.53582   -1643.0037    113.51582 
   54860    287.79762    9.2629898   -109.46787   -1610.8418    113.53339 
   54870    285.19109    9.1790965   -109.38398   -1560.9596    113.54907 
   54880    282.02801    9.0772903   -109.28217   -1499.9929    113.56282 
   54890    278.39165    8.9602512   -109.16512   -1433.7061    113.57476 
   54900    274.54289    8.8363759   -109.04124   -1366.5565    113.58509 
   54910    270.91256    8.7195311   -108.92438   -1301.1929    113.59412 
   54920    268.01839    8.6263799   -108.83122   -1241.3062    113.60224 
   54930    266.33446    8.5721812   -108.77702   -1188.2183     113.6099 
   54940    266.17204    8.5669537   -108.77179   -1137.2859    113.61755 
   54950    267.61796    8.6134918   -108.81833   -1080.4326    113.62568 
   54960    270.50971    8.7065648   -108.91141   -1010.3598    113.63471 
   54970    274.42299    8.8325168   -109.03738   -920.33349    113.64509 
   54980    278.71486    8.9706542   -109.17553   -803.01197    113.65723 
   54990    282.68699    9.0985002   -109.30339   -655.82235    113.67155 
   55000    285.77669    9.1979445   -109.40284   -488.27238     113.6884 
Loop time of 9.23781 on 1 procs for 10000 steps with 250 atoms

Performance: 46.764 ns/day, 0.513 hours/ns, 1082.508 timesteps/s
99.8% CPU use with 1 MPI tasks x no OpenMP threads

MPI task timing breakdown:
Section |  min time  |  avg time  |  max time  |%varavg| %total
---------------------------------------------------------------
Pair    | 8.6989     | 8.6989     | 8.6989     |   0.0 | 94.17
Neigh   | 0.32762    | 0.32762    | 0.32762    |   0.0 |  3.55
Comm    | 0.036413   | 0.036413   | 0.036413   |   0.0 |  0.39
Output  | 0.15091    | 0.15091    | 0.15091    |   0.0 |  1.63
Modify  | 0.015591   | 0.015591   | 0.015591   |   0.0 |  0.17
Other   |            | 0.008401   |            |       |  0.09

Nlocal:    250 ave 250 max 250 min
Histogram: 1 0 0 0 0 0 0 0 0 0
Nghost:    874 ave 874 max 874 min
Histogram: 1 0 0 0 0 0 0 0 0 0
Neighs:    0 ave 0 max 0 min
Histogram: 1 0 0 0 0 0 0 0 0 0
FullNghs:  8374 ave 8374 max 8374 min
Histogram: 1 0 0 0 0 0 0 0 0 0

Total # of neighbors = 8374
Ave neighs/atom = 33.496
Neighbor list builds = 1000
Dangerous builds not checked




Total wall time: 0:00:52
