
# Define the lattice
variable	lattice_constant equal 3.91617
lattice		bcc ${lattice_constant}
lattice		bcc 3.91617
Lattice spacing in x,y,z = 3.91617 3.91617 3.91617

# Define region
# multiples of lattice spacing
region 		simbox block 0 5 0 5 0 5

# Create Atoms
create_box 	1 simbox
Created orthogonal box = (0 0 0) to (19.5809 19.5809 19.5809)
  1 by 1 by 1 MPI processor grid
create_atoms 	1 box
Created 250 atoms
  Time spent = 0.000164986 secs
mass		1 18.015

velocity	all create 600.0 97287

# Define Interatomic Potential
pair_style	sw
pair_coeff	* * mW.sw mW
Reading potential file mW.sw with DATE: 2019-02-27

neighbor 	2.0 bin
neigh_modify	delay 10 check no

# Pressure computations
compute		total_press all pressure thermo_temp
compute		peratom all stress/atom NULL
compute		p all reduce sum c_peratom[1] c_peratom[2] c_peratom[3]
variable	press equal -(c_p[1]+c_p[2]+c_p[3])/(3*vol)

# Density computations
variable	total_mass equal mass(all)
variable	v equal vol
print 		${total_mass}
print 		4503.75
4503.75
print		$v
print		7507.48756426027
7507.48756426027

variable 	density equal v_total_mass/(v_v*18.015)
print 		${density}
print 		0.0333000884597047
0.0333000884597047


# Run equilibration
thermo_style	custom step temp ke pe c_total_press v_press
thermo		10
dump		1 all atom 10 ${simname}.dump
dump		1 all atom 10 mW_bcc.dump

fix 		1 all nve
#temp 300.0 300.0 100.0 iso 0.0 0.0 1000.0
timestep	0.0005
run		10000
Neighbor list info ...
  update every 1 steps, delay 10 steps, check no
  max neighbors/atom: 2000, page size: 100000
  master list distance cutoff = 6.3065
  ghost atom cutoff = 6.3065
  binsize = 3.15325, bins = 7 7 7
  1 neighbor lists, perpetual/occasional/extra = 1 0 0
  (1) pair sw, perpetual
      attributes: full, newton on
      pair build: full/bin/atomonly
      stencil: full/bin/3d
      bin: standard
Per MPI rank memory allocation (min/avg/max) = 4.355 | 4.355 | 4.355 Mbytes
Step Temp KinEng PotEng c_total_press v_press 
       0          600    19.311466   -2281.5278   -1096391.3   -1096391.3 
      10    613.05629    19.731692   -2281.9484   -1086570.4   -1086570.4 
      20    641.31207    20.641127   -2282.8588   -1058477.8   -1058477.8 
      30    672.67388    21.650531   -2283.8672   -1016132.9   -1016132.9 
      40    778.57187     25.05894   -2287.2725   -964348.55   -964348.55 
      50    1107.1449    35.634318   -2297.8472   -904243.44   -904243.44 
      60    1712.8863    55.130575   -2317.3478   -829141.43   -829141.43 
      70    2480.1614    79.825921   -2342.0476   -734920.12   -734920.12 
      80    3316.6503    106.74896   -2368.9713   -623628.66   -623628.66 
      90    4240.1435    136.47231   -2398.7012   -504066.67   -504066.67 
     100    5066.6527    163.07415   -2425.3099   -387521.79   -387521.79 
     110    5623.2078    180.98731   -2443.2227   -285724.62   -285724.62 
     120    5987.8132    192.72241   -2454.9579   -206885.03   -206885.03 
     130    6273.7094    201.92421   -2464.1627   -155167.59   -155167.59 
     140    6471.6608    208.29543   -2470.5352   -116149.45   -116149.45 
     150    6633.2741    213.49707   -2475.7365   -79846.628   -79846.628 
     160    6842.7375    220.23882   -2482.4928   -50297.956   -50297.956 
     170    6744.0832    217.06355   -2479.3185   -22078.952   -22078.952 
     180    6539.3149    210.47292   -2472.7149   -4208.7314   -4208.7314 
     190    6719.6288    216.27647    -2478.539    356.61254    356.61254 
     200    6749.7766     217.2468   -2479.5076    3591.3863    3591.3863 
     210    6704.2674    215.78205   -2478.0354   -2612.9259   -2612.9259 
     220    6986.9646    224.88088   -2487.1438   -18483.198   -18483.198 
     230     7225.691    232.56447   -2494.8367    -24460.79    -24460.79 
     240    7166.2321    230.65074   -2492.9105   -18399.777   -18399.777 
     250    7095.8383    228.38506   -2490.6553   -14448.899   -14448.899 
     260    6848.6195    220.42813     -2482.68   -20554.738   -20554.738 
     270    6946.7879    223.58776   -2485.8555   -29871.554   -29871.554 
     280    6921.0931    222.76075   -2485.0249   -38723.462   -38723.462 
     290    6846.0704    220.34609   -2482.6058   -42733.916   -42733.916 
     300    6984.5364    224.80272   -2487.0682   -50831.573   -50831.573 
     310    7056.8558    227.13038   -2489.4032   -57603.696   -57603.696 
     320    6766.3451    217.78007   -2480.0482   -48600.409   -48600.409 
     330    6450.8539    207.62574   -2469.8863   -36440.318   -36440.318 
     340    6535.4906    210.34984   -2472.6207   -31299.107   -31299.107 
     350    6668.1057    214.61816   -2476.9015   -25500.811   -25500.811 
     360     6563.116    211.23898   -2473.5017   -21783.544   -21783.544 
     370    6741.7311    216.98785   -2479.2647   -29566.166   -29566.166 
     380    6856.3676    220.67751   -2482.9481   -26374.996   -26374.996 
     390    6832.8411    219.92029   -2482.1954   -11913.843   -11913.843 
     400    6667.1417    214.58713   -2476.8556   -6352.1502   -6352.1502 
     410    6698.2582    215.58864   -2477.8645   -9909.5007   -9909.5007 
     420    6723.9125    216.41434   -2478.6931   -12298.898   -12298.898 
     430    6773.8021    218.02008    -2480.291   -15071.571   -15071.571 
     440    7017.7309    225.87112   -2488.1521   -12044.549   -12044.549 
     450    7130.7373    229.50831   -2491.7885   -11528.903   -11528.903 
     460      7012.14    225.69117   -2487.9668   -13592.528   -13592.528 
     470    6903.3052    222.18823    -2484.454   -19264.756   -19264.756 
     480    6997.6342    225.22429   -2487.5113   -21291.908   -21291.908 
     490      6764.97    217.73581   -2480.0058   -12834.365   -12834.365 
     500    6740.3633    216.94382   -2479.2202    2928.2537    2928.2537 
     510     6846.532    220.36095   -2482.6388    1132.8828    1132.8828 
     520    6836.1118    220.02556   -2482.3046   -6438.7451   -6438.7451 
     530     6684.238    215.13739   -2477.4051   -5959.9536   -5959.9536 
     540    6802.7075    218.95042   -2481.2289    -11501.78    -11501.78 
     550     6908.047    222.34085   -2484.6097   -16491.214   -16491.214 
     560    7207.0487    231.96445   -2494.2496   -23975.167   -23975.167 
     570    7117.7541    229.09044   -2491.3786   -22621.026   -22621.026 
     580    6655.5375    214.21364   -2476.4658   -11815.032   -11815.032 
     590    6926.4751    222.93398   -2485.2204   -5570.8436   -5570.8436 
     600    6919.9825    222.72501   -2485.0046   -5457.7089   -5457.7089 
     610    6754.4141    217.39606    -2479.662   -5804.0643   -5804.0643 
     620       6963.7    224.13209   -2486.4141   -11567.275   -11567.275 
     630    6953.7715    223.81253   -2486.0938    -11825.74    -11825.74 
     640    6734.5928    216.75809    -2479.019    1820.7483    1820.7483 
     650    6996.3812    225.18396   -2487.4661    8706.7098    8706.7098 
     660    7114.3918    228.98222   -2491.2604    2836.1152    2836.1152 
     670     6970.157    224.33991   -2486.6136   -6547.3513   -6547.3513 
     680    6870.6304    221.13657   -2483.4036   -11237.634   -11237.634 
     690    7051.9001    226.97088    -2489.249   -6957.8328   -6957.8328 
     700    7177.5725    231.01574    -2493.301   -2373.6401   -2373.6401 
     710    7138.6713    229.76368   -2492.0273   -3101.9097   -3101.9097 
     720    7443.7534    239.58298   -2501.8721   -12896.298   -12896.298 
     730    7398.3958    238.12311   -2500.4013   -15212.889   -15212.889 
     740    7291.0862    234.66927    -2496.944   -11498.394   -11498.394 
     750    7300.2568    234.96443   -2497.2362   -12541.914   -12541.914 
     760    7329.9926     235.9215   -2498.1946   -10747.091   -10747.091 
     770    7374.6131    237.35765   -2499.6313   -7611.2587   -7611.2587 
     780    7337.9793    236.17856   -2498.4564   -7691.3488   -7691.3488 
     790    7194.1253    231.54851   -2493.8229    -19993.68    -19993.68 
     800    7195.7471    231.60071   -2493.8835   -21856.183   -21856.183 
     810    7185.8541    231.28229   -2493.5544   -15322.443   -15322.443 
     820    7515.3499    241.88737    -2504.168   -13869.948   -13869.948 
     830    7722.5969    248.55777   -2510.8531   -11161.861   -11161.861 
     840    7288.4162    234.58333   -2496.8453   -1767.1836   -1767.1836 
     850    7316.9161    235.50062   -2497.7636    1138.2152    1138.2152 
     860    7796.6958    250.94271   -2513.2248   -14603.344   -14603.344 
     870    7868.8952     253.2665   -2515.5579   -29350.738   -29350.738 
     880    7256.1085    233.54348   -2495.8108   -25805.719   -25805.719 
     890     6968.671    224.29208   -2486.5538   -19479.646   -19479.646 
     900    7302.1936    235.02677   -2497.3025   -13598.825   -13598.825 
     910    7440.6895    239.48437     -2501.77   -10341.088   -10341.088 
     920    7109.7163    228.83174   -2491.0949   -3590.2935   -3590.2935 
     930    7089.4576     228.1797   -2490.4585    2046.4837    2046.4837 
     940    7087.0699    228.10285   -2490.3784    9997.8003    9997.8003 
     950    7114.1523    228.97451   -2491.2536    6214.2341    6214.2341 
     960    7113.3464    228.94858   -2491.2227   -1822.8264   -1822.8264 
     970    7122.1037    229.23044   -2491.5065    -9623.504    -9623.504 
     980    7123.6934     229.2816   -2491.5498   -20220.686   -20220.686 
     990    7422.3961    238.89558   -2501.1719   -30308.134   -30308.134 
    1000    7695.8166    247.69583    -2509.985   -31859.277   -31859.277 
    1010    7528.9521    242.32517   -2504.6057   -17236.967   -17236.967 
    1020    7393.7874    237.97479   -2500.2584   -4299.5096   -4299.5096 
    1030    7377.5811    237.45317   -2499.7303    6023.0662    6023.0662 
    1040    7420.9401    238.84872    -2501.134    10194.369    10194.369 
    1050    7367.3558    237.12406   -2499.4054    6836.6981    6836.6981 
    1060    7265.3743    233.84171   -2496.1212    5823.0468    5823.0468 
    1070    7161.6251    230.50246   -2492.7741    6289.3209    6289.3209 
    1080    7400.3988    238.18758   -2500.4728   -5051.4364   -5051.4364 
    1090    7562.1857    243.39481   -2505.6809   -20772.669   -20772.669 
    1100    7514.9029    241.87298   -2504.1541   -20670.666   -20670.666 
    1110    7415.2477     238.6655    -2500.951   -20008.798   -20008.798 
    1120    7162.9179    230.54407   -2492.8177   -24318.008   -24318.008 
    1130     7042.869     226.6802   -2488.9509   -33599.267   -33599.267 
    1140    7206.8926    231.95943   -2494.2228   -48044.738   -48044.738 
    1150    7653.5751    246.33626   -2508.6193   -49644.553   -49644.553 
    1160    7705.3986    248.00424   -2510.2872   -39134.301   -39134.301 
    1170     7538.967     242.6475    -2504.919   -21150.545   -21150.545 
    1180    7734.2192    248.93185   -2511.2143   -155.60977   -155.60977 
    1190    7881.7843    253.68134    -2515.978    8601.7653    8601.7653 
    1200    7485.8403    240.93758    -2503.216    15607.435    15607.435 
    1210    7250.6594     233.3681   -2495.6337    13757.457    13757.457 
    1220    7640.1931    245.90554   -2508.2073    4281.9352    4281.9352 
    1230    7511.6031    241.76678   -2504.0446    -6798.947    -6798.947 
    1240    7318.7094    235.55834   -2497.8226   -14695.943   -14695.943 
    1250     7743.757    249.23883   -2511.5265   -19194.408   -19194.408 
    1260    7848.2843    252.60312   -2514.9128   -10640.965   -10640.965 
    1270    7140.4916    229.82226   -2492.0849     14103.06     14103.06 
    1280    7122.7977    229.25277   -2491.5444    17713.862    17713.862 
    1290    7157.6719    230.37522   -2492.6624    9292.3398    9292.3398 
    1300    7246.8511    233.24553   -2495.5351   -2736.2336   -2736.2336 
    1310    7407.2068     238.4067   -2500.6969    1392.4465    1392.4465 
    1320    7530.6029     242.3783   -2504.6717     19354.04     19354.04 
    1330    7620.0384    245.25685   -2507.5462     14154.08     14154.08 
    1340    7471.1358    240.46431     -2502.77   -5107.7143   -5107.7143 
    1350    6725.7957    216.47495   -2478.7306   -9750.8767   -9750.8767 
    1360    7029.6321    226.25417   -2488.5344   -17988.193   -17988.193 
    1370    7579.9967    243.96808    -2506.269   -26249.694   -26249.694 
    1380    7428.8637    239.10374   -2501.3918   -18482.561   -18482.561 
    1390    7047.6369    226.83366   -2489.1096   -9865.1762   -9865.1762 
    1400     7111.333    228.88377    -2491.159   -10373.941   -10373.941 
    1410    7491.7031    241.12628   -2503.4298   -15972.076   -15972.076 
    1420    7260.0671    233.67089   -2495.9403   -13197.243   -13197.243 
    1430    7433.8585    239.26451   -2501.5414   -13537.641   -13537.641 
    1440    7883.7769    253.74548   -2516.0451   -4888.6332   -4888.6332 
    1450    7825.4114    251.86694   -2514.1577    5070.3884    5070.3884 
    1460    7524.2958     242.1753   -2504.4579    9542.9533    9542.9533 
    1470    7453.4433    239.89486   -2502.1774    15675.463    15675.463 
    1480    7445.1428     239.6277   -2501.9206    22289.713    22289.713 
    1490    7312.3889    235.35491   -2497.6275    26927.422    26927.422 
    1500    7601.7638    244.66867   -2506.9679    29506.566    29506.566 
    1510    7511.9761    241.77878   -2504.0621     41265.73     41265.73 
    1520    7542.0576    242.74698   -2505.0357    46323.892    46323.892 
    1530    7731.2266    248.83553   -2511.1206    36753.956    36753.956 
    1540    8012.8535    257.89991   -2520.2066    27988.846    27988.846 
    1550    7755.7848    249.62595     -2511.91    23174.973    23174.973 
    1560    7527.9921    242.29427   -2504.5737    21898.228    21898.228 
    1570    7578.4393    243.91795   -2506.2061    21477.936    21477.936 
    1580    7505.0025    241.55433   -2503.8336    24404.961    24404.961 
    1590    7546.5835    242.89265   -2505.1731    17545.082    17545.082 
    1600    7618.9067    245.22043   -2507.5104    11905.172    11905.172 
    1610    7530.8482     242.3862   -2504.6668    14739.278    14739.278 
    1620    7519.1348    242.00919   -2504.2928    19636.847    19636.847 
    1630    7370.8583    237.23679   -2499.5191    22723.263    22723.263 
    1640    7129.5456    229.46996   -2491.7353    10642.038    10642.038 
    1650    7278.2296    234.25547   -2496.5373    -2293.772    -2293.772 
    1660     7419.201    238.79274   -2501.0723   -5673.4665   -5673.4665 
    1670    7626.9704    245.47996   -2507.7527   -8384.7633   -8384.7633 
    1680    8022.6556     258.2154   -2520.5176   -7157.1534   -7157.1534 
    1690    7728.1284    248.73581   -2511.0182    9066.8609    9066.8609 
    1700    7413.0159    238.59367   -2500.8658    23182.971    23182.971 
    1710    7508.2107    241.65759   -2503.9468    24622.238    24622.238 
    1720    7380.9523    237.56168   -2499.8304    21668.662    21668.662 
    1730    7548.8611    242.96595   -2505.2396    15857.261    15857.261 
    1740     7835.941    252.20584   -2514.4972    7486.9379    7486.9379 
    1750    7733.6435    248.91332    -2511.191    2369.1852    2369.1852 
    1760    7697.0714    247.73622    -2510.017    901.59062    901.59062 
    1770    7810.1991    251.37732   -2513.6602   -86.519545   -86.519545 
    1780     7788.745     250.6868    -2512.982    6066.0897    6066.0897 
    1790    7350.3846    236.57783   -2498.8665    21492.951    21492.951 
    1800    6988.2482    224.92219   -2487.1811    29426.471    29426.471 
    1810    7445.0592    239.62501    -2501.921    23987.902    23987.902 
    1820    7521.6594    242.09045   -2504.3846    24975.982    24975.982 
    1830    7109.8156    228.83493   -2491.0959    35097.761    35097.761 
    1840    7440.6652    239.48358   -2501.7609    27079.883    27079.883 
    1850    7829.9718    252.01372   -2514.3226    16015.627    16015.627 
    1860    7195.0318    231.57768   -2493.8457    13163.008    13163.008 
    1870    6987.4761    224.89734   -2487.1633    13439.103    13439.103 
    1880    7374.9976    237.37002   -2499.6646    17354.276    17354.276 
    1890    7303.3105    235.06272   -2497.3491    26649.924    26649.924 
    1900    7084.2631    228.01251   -2490.2915    29974.794    29974.794 
    1910    7154.9909    230.28893   -2492.5626    17962.458    17962.458 
    1920     7661.962    246.60619   -2508.8936    5954.4024    5954.4024 
    1930    7942.9528     255.6501   -2517.9466   -4342.7571   -4342.7571 
    1940    7646.9321    246.12244   -2508.3986   -15049.533   -15049.533 
    1950     7396.334    238.05675   -2500.3399    -19708.68    -19708.68 
    1960    6989.3235     224.9568   -2487.2292   -9997.9804   -9997.9804 
    1970    6943.8495    223.49318   -2485.7544   -3197.0921   -3197.0921 
    1980    7621.1868    245.29381   -2507.5859   -6325.7747   -6325.7747 
    1990    7745.1351    249.28318   -2511.5792   -6328.6467   -6328.6467 
    2000    7208.4885     232.0108   -2494.2712   -108.68795   -108.68795 
    2010    7386.4044    237.73716   -2500.0154   -348.03473   -348.03473 
    2020    7657.3654    246.45825   -2508.7478   -5714.1961   -5714.1961 
    2030    7401.5147    238.22349   -2500.4955     618.3177     618.3177 
    2040    7381.2061    237.56985   -2499.8416    1341.8379    1341.8379 
    2050    7577.3008    243.88131   -2506.1718   -3550.7776   -3550.7776 
    2060    7268.8055    233.95214   -2496.2235   -2180.9481   -2180.9481 
    2070    7283.2759    234.41789   -2496.6795   -10838.243   -10838.243 
    2080    7925.6267    255.09245   -2517.3958    -25373.92    -25373.92 
    2090    7764.9191    249.91995   -2512.2067   -19426.773   -19426.773 
    2100    7374.3862    237.35034   -2499.6242   -3662.1391   -3662.1391 
    2110    7381.2428    237.57103   -2499.8482    8924.3378    8924.3378 
    2120    7564.8273    243.47984   -2505.7656     19697.78     19697.78 
    2130    7695.6059    247.68905    -2509.972    24895.778    24895.778 
    2140    7669.5051    246.84897   -2509.1376    8720.8649    8720.8649 
    2150    7610.7794    244.95884   -2507.2277   -5199.1182   -5199.1182 
    2160    7964.2362    256.33512   -2518.6328   -5107.6693   -5107.6693 
    2170    7795.0511    250.88977   -2513.1807    4757.5188    4757.5188 
    2180    7268.0333    233.92729    -2496.188    10615.802    10615.802 
    2190    7351.3438    236.60871   -2498.8935   -399.72359   -399.72359 
    2200     7289.522    234.61892   -2496.9021    365.69805    365.69805 
    2210    7057.6397    227.15561   -2489.4199    7132.3219    7132.3219 
    2220    7360.1275    236.89142     -2499.17    14035.556    14035.556 
    2230    7692.4284    247.58678   -2509.8749    13744.129    13744.129 
    2240    7757.5667     249.6833   -2511.9603    774.29861    774.29861 
    2250    7868.4711    253.25285   -2515.5419   -3473.7605   -3473.7605 
    2260    7630.3531    245.58884   -2507.8778     3234.124     3234.124 
    2270    7083.9657    228.00293   -2490.2651    13391.474    13391.474 
    2280     7131.048    229.51831   -2491.7983    19187.975    19187.975 
    2290    7315.5813    235.45766   -2497.7414    27298.271    27298.271 
    2300    7330.3719    235.93371   -2498.2176    25278.756    25278.756 
    2310    7301.9916    235.02027   -2497.3004     23245.76     23245.76 
    2320     7226.153    232.57934   -2494.8735    32605.528    32605.528 
    2330     7033.942    226.39288   -2488.6577    37639.534    37639.534 
    2340    7425.8357    239.00629   -2501.2999    15120.482    15120.482 
    2350     7455.601     239.9643   -2502.2463   -4873.5749   -4873.5749 
    2360    7449.1998    239.75828   -2502.0349   -4417.6912   -4417.6912 
    2370    7716.8465    248.37269   -2510.6538    3271.9074    3271.9074 
    2380    7924.2232    255.04728   -2517.3479    6055.0278    6055.0278 
    2390    7551.2429    243.04261    -2505.313     11592.32     11592.32 
    2400     7426.363    239.02326   -2501.3022    10440.309    10440.309 
    2410    7403.3691    238.28318   -2500.5756    9154.2291    9154.2291 
    2420    7088.2194    228.13984   -2490.4135    20690.404    20690.404 
    2430    7123.3835    229.27163   -2491.5452    33702.926    33702.926 
    2440    7518.8392    241.99967   -2504.2942    29145.308    29145.308 
    2450    7493.4437     241.1823   -2503.4624    29371.836    29371.836 
    2460    7413.3005    238.60283   -2500.8838    22480.328    22480.328 
    2470    7345.0405    236.40583   -2498.6925    9628.7131    9628.7131 
    2480    7093.5032    228.30991   -2490.5785    9781.4134    9781.4134 
    2490    7267.5617    233.91211    -2496.184    3023.0683    3023.0683 
    2500    7694.5699     247.6557   -2509.9536   -7668.6805   -7668.6805 
    2510    7475.9141     240.6181   -2502.8995   -14640.721   -14640.721 
    2520    7154.7179    230.28015   -2492.5453    -7815.379    -7815.379 
    2530    7407.8543    238.42754   -2500.7131    7772.4959    7772.4959 
    2540    7661.8412    246.60231   -2508.8888    18564.278    18564.278 
    2550    7739.9694    249.11692   -2511.4106    8254.7118    8254.7118 
    2560    7417.7716    238.74674   -2501.0266   -3254.6206   -3254.6206 
    2570    7108.3105    228.78649   -2491.0588   -6245.7338   -6245.7338 
    2580     7154.843    230.28417   -2492.5717    6444.2773    6444.2773 
    2590    7049.4495      226.892    -2489.176    21980.056    21980.056 
    2600    6950.9683    223.72231   -2485.9921    31706.192    31706.192 
    2610    7318.6956     235.5579   -2497.8452    30057.787    30057.787 
    2620    7624.4226    245.39796    -2507.688    20900.789    20900.789 
    2630    7617.3647     245.1708   -2507.4591    21464.864    21464.864 
    2640    7515.7113      241.899   -2504.1842    24766.294    24766.294 
    2650    7424.0942    238.95023   -2501.2377    21585.415    21585.415 
    2660    7305.0368    235.11828   -2497.4006    22476.395    22476.395 
    2670    7247.8243    233.27685   -2495.5641    23646.111    23646.111 
    2680    7235.8346    232.89095   -2495.1643    18086.987    18086.987 
    2690    7420.9258    238.84826   -2501.1442    18639.782    18639.782 
    2700    7037.2498    226.49935   -2488.7726    28301.657    28301.657 
    2710    6912.6066    222.48761   -2484.7541    31555.184    31555.184 
    2720    7301.4253    235.00204   -2497.2897    27947.529    27947.529 
    2730    7494.7768    241.22521   -2503.5068    23185.698    23185.698 
    2740    7478.0594    240.68715   -2502.9847    16845.749    16845.749 
    2750    7110.0088    228.84115   -2491.1077    16221.389    16221.389 
    2760    7440.5845    239.48099   -2501.7622     16880.15     16880.15 
    2770    7773.2115    250.18684   -2512.4921    16551.729    16551.729 
    2780    7236.5848     232.9151   -2495.1829    9983.5346    9983.5346 
    2790    7148.7516    230.08812   -2492.3567    40.179442    40.179442 
    2800     7569.218    243.62116   -2505.9145   -6106.5138   -6106.5138 
    2810    7462.8337    240.19709   -2502.4796   -9229.2752   -9229.2752 
    2820    7171.4348     230.8182   -2493.0922   -15968.197   -15968.197 
    2830    7326.9834    235.82465    -2498.094   -19649.249   -19649.249 
    2840    7988.9199    257.12959   -2519.4226   -15051.332   -15051.332 
    2850    8242.2154     265.2821   -2527.5895   -10460.069   -10460.069 
    2860    7682.8969       247.28   -2509.5524   -695.91153   -695.91153 
    2870    7574.7148    243.79807   -2506.0829    11066.775    11066.775 
    2880    7600.8453    244.63911   -2506.9319    3108.8962    3108.8962 
    2890    7406.1022    238.37115   -2500.6527    2764.5756    2764.5756 
    2900    7361.1946    236.92576   -2499.2095    9614.3449    9614.3449 
    2910    7382.4109    237.60863    -2499.903    14999.218    14999.218 
    2920    7339.1303    236.21561   -2498.4954    10790.066    10790.066 
    2930    7601.3632    244.65577   -2506.9396   -12826.776   -12826.776 
    2940    7959.8935    256.19535    -2518.494   -36508.553   -36508.553 
    2950    7754.9037     249.5976   -2511.8905   -29768.977   -29768.977 
    2960    7259.8314    233.66331   -2495.9337    -7105.173    -7105.173 
    2970    7306.3018    235.15899   -2497.4403   -1081.0686   -1081.0686 
    2980    7572.3056    243.72053   -2506.0174    4450.0713    4450.0713 
    2990    7491.0594    241.10556   -2503.3889    2166.0889    2166.0889 
    3000    7470.7123    240.45067   -2502.7251   -10393.609   -10393.609 
    3010    7744.3118    249.25669   -2511.5479   -10728.442   -10728.442 
    3020    7721.8195    248.53275   -2510.8134   -6832.3432   -6832.3432 
    3030    7827.9126    251.94744   -2514.2368   -6705.4942   -6705.4942 
    3040    7776.4876    250.29229   -2512.5977   -1385.6759   -1385.6759 
    3050    7086.6192    228.08834   -2490.3529     4016.061     4016.061 
    3060    7264.8073    233.82346   -2496.0952   -6881.9082   -6881.9082 
    3070    7866.4066     253.1864   -2515.4999   -10569.335   -10569.335 
    3080    7428.1619    239.08116   -2501.3569     5584.067     5584.067 
    3090    7141.8572    229.86622   -2492.1364    7776.2396    7776.2396 
    3100    7402.3336    238.24985   -2500.5323    5806.8298    5806.8298 
    3110    7596.0362    244.48432   -2506.7807    13745.502    13745.502 
    3120    7215.7033    232.24301   -2494.5224    25995.619    25995.619 
    3130    6903.9044    222.20752   -2484.4687    27469.304    27469.304 
    3140    7346.1491    236.44151   -2498.7331    23444.962    23444.962 
    3150     7519.077    242.00733    -2504.301    27459.602    27459.602 
    3160    7227.6325    232.62696    -2494.899    23896.074    23896.074 
    3170     7176.175    230.97076   -2493.2536    2521.1619    2521.1619 
    3180    7112.9213    228.93489   -2491.2174   -15060.628   -15060.628 
    3190    7060.1413    227.23613   -2489.5135   -15266.424   -15266.424 
    3200    7289.3817    234.61441   -2496.9007   -8811.5495   -8811.5495 
    3210    7406.1637    238.37313   -2500.6663   -9201.3674   -9201.3674 
    3220    7195.3391    231.58757    -2493.859   -11094.115   -11094.115 
    3230    7261.8423    233.72803   -2496.0205   -16594.734   -16594.734 
    3240    7062.6767    227.31773    -2489.582   -23788.362   -23788.362 
    3250    7313.4492    235.38904   -2497.6632   -26134.713   -26134.713 
    3260     7795.503    250.90431   -2513.1943   -22063.855   -22063.855 
    3270    7940.1375    255.55949   -2517.8406   -19019.732   -19019.732 
    3280    7879.4265    253.60546   -2515.9006   -15483.476   -15483.476 
    3290    7375.3843    237.38247   -2499.6531    168.24571    168.24571 
    3300    7218.3471     232.3281   -2494.6009    13307.188    13307.188 
    3310     7478.105    240.68861   -2502.9666    5132.5772    5132.5772 
    3320    7734.9058    248.95395   -2511.2444   -3056.4186   -3056.4186 
    3330    7584.6317    244.11726   -2506.3917   -2440.5086   -2440.5086 
    3340    7476.1596      240.626   -2502.9034   -18872.672   -18872.672 
    3350    7308.5458    235.23122   -2497.5127   -29256.612   -29256.612 
    3360    6920.1157    222.72929   -2484.9962   -31235.534   -31235.534 
    3370    6916.3984    222.60965   -2484.8755   -38332.697   -38332.697 
    3380    7367.7165    237.13567   -2499.4217   -43741.156   -43741.156 
    3390     7403.665     238.2927   -2500.5872   -35998.252   -35998.252 
    3400    6822.8118    219.59749   -2481.8637   -29545.325   -29545.325 
    3410    6555.3243     210.9882   -2473.2548   -24220.913   -24220.913 
    3420    6799.8571    218.85868   -2481.1289   -30481.326   -30481.326 
    3430    7158.8786    230.41406   -2492.6995   -39570.057   -39570.057 
    3440    7038.6581    226.54467   -2488.8147   -40020.667   -40020.667 
    3450    7018.1035    225.88311   -2488.1554   -37888.509   -37888.509 
    3460    7234.9654    232.86298   -2495.1472   -37855.567   -37855.567 
    3470    7230.1252    232.70719    -2494.992   -40726.976   -40726.976 
    3480    7131.7294    229.54024    -2491.813   -39946.973   -39946.973 
    3490    7318.3922    235.54813   -2497.8346   -38304.389   -38304.389 
    3500    7171.6479    230.82505   -2493.1073   -30441.602   -30441.602 
    3510    6910.3356    222.41451   -2484.6754   -20879.293   -20879.293 
    3520    7256.2241    233.54721   -2495.8206   -23473.639   -23473.639 
    3530    7666.4708    246.75131   -2509.0406   -34474.399   -34474.399 
    3540     7614.386    245.07492   -2507.3544   -42497.552   -42497.552 
    3550     7318.487    235.55118   -2497.8273   -39765.623   -39765.623 
    3560    7153.7172    230.24794   -2492.5224   -29071.446   -29071.446 
    3570    7209.2068    232.03391   -2494.3107   -15512.785   -15512.785 
    3580    7371.4297    237.25519   -2499.5307   -9938.0313   -9938.0313 
    3590    7610.0607    244.93571   -2507.2298   -10177.528   -10177.528 
    3600    7334.5249    236.06738   -2498.3443    3110.0555    3110.0555 
    3610     7370.863    237.23695    -2499.521     5734.842     5734.842 
    3620    7551.2451    243.04268   -2505.3287     -232.838     -232.838 
    3630    7533.4121    242.46871   -2504.7453   -11707.795   -11707.795 
    3640    7474.0203    240.55714   -2502.8424   -15800.872   -15800.872 
    3650     7092.706    228.28425   -2490.5612   -9314.9814   -9314.9814 
    3660     6694.972    215.48287   -2477.7527   -8700.1232   -8700.1232 
    3670    6679.9092    214.99806   -2477.2613   -9548.9545   -9548.9545 
    3680    7164.7896    230.60431   -2492.8938   -9068.2973   -9068.2973 
    3690    7220.5377    232.39861   -2494.6879    9248.7111    9248.7111 
    3700    6877.2659    221.35014   -2483.6216    29488.872    29488.872 
    3710    6993.9556    225.10589   -2487.3867     29750.49     29750.49 
    3720    7179.0863    231.06446   -2493.3578    23093.275    23093.275 
    3730    7154.1467    230.26176   -2492.5322     15683.92     15683.92 
    3740    7610.7456    244.95775   -2507.2534    -1382.499    -1382.499 
    3750    7564.5874    243.47212   -2505.7676   -11360.476   -11360.476 
    3760    6922.4699    222.80507   -2485.0742    1050.0279    1050.0279 
    3770    6866.3223    220.99791   -2483.2704    15507.858    15507.858 
    3780    7328.2695    235.86604   -2498.1627    17363.487    17363.487 
    3790    7465.1594    240.27195   -2502.5516    8707.1344    8707.1344 
    3800    7622.7815    245.34514   -2507.6383   -9104.2771   -9104.2771 
    3810    7496.4942    241.28049   -2503.5617    -7163.867    -7163.867 
    3820    7341.6076    236.29534   -2498.5774    13873.482    13873.482 
    3830     7310.959    235.30889    -2497.583    22870.249    22870.249 
    3840    7427.8118    239.06989   -2501.3586    23748.673    23748.673 
    3850    7421.2089    238.85737   -2501.1294    27496.878    27496.878 
    3860    7710.7791    248.17741   -2510.4695    20874.707    20874.707 
    3870    7608.5782      244.888   -2507.1781    10307.696    10307.696 
    3880    7250.0032    233.34698   -2495.6173   -163.28728   -163.28728 
    3890    7289.2301    234.60953   -2496.8964   -11152.123   -11152.123 
    3900    7161.9372    230.51251   -2492.7982   -11468.545   -11468.545 
    3910    6850.1516    220.47745   -2482.7368    -4509.536    -4509.536 
    3920    7247.4839     233.2659   -2495.5474   -2220.7354   -2220.7354 
    3930    7498.8221    241.35541   -2503.6542   -875.86039   -875.86039 
    3940    6958.1168    223.95239   -2486.2255   -6354.4536   -6354.4536 
    3950    6603.1186     212.5265    -2474.797   -11284.965   -11284.965 
    3960    6905.2135    222.24965   -2484.5268   -7640.6058   -7640.6058 
    3970    7365.4538    237.06285   -2499.3693   -787.76539   -787.76539 
    3980    6988.9879      224.946   -2487.2221    13400.228    13400.228 
    3990    6711.6868    216.02085   -2478.3031    14366.968    14366.968 
    4000    6667.4443    214.59687   -2476.8655    9689.3974    9689.3974 
    4010     7136.955    229.70844   -2491.9914    7826.6419    7826.6419 
    4020    7501.6133    241.44525   -2503.7413    8343.9953    8343.9953 
    4030    7361.3957    236.93223   -2499.2023    6438.6304    6438.6304 
    4040    7602.1302    244.68046   -2506.9505     -4880.14     -4880.14 
    4050    8094.7194    260.53483   -2522.8363   -15794.522   -15794.522 
    4060    7609.7652     244.9262   -2507.2146   -23663.319   -23663.319 
    4070    6716.4347    216.17366   -2478.4313   -20382.358   -20382.358 
    4080    6768.9279     217.8632   -2480.1395   -20949.694   -20949.694 
    4090    7233.5073    232.81605   -2495.1067   -26862.365   -26862.365 
    4100    7374.4552    237.35256   -2499.6421   -17661.894   -17661.894 
    4110    7144.2449    229.94307    -2492.226   -4565.4163   -4565.4163 
    4120     6965.606    224.19344   -2486.4629   -4981.8319   -4981.8319 
    4130     7198.708      231.696   -2493.9812   -18808.337   -18808.337 
    4140    7422.1396    238.88732    -2501.158   -30343.673   -30343.673 
    4150    7833.1405    252.11571   -2514.4078   -34514.198   -34514.198 
    4160    7768.0721    250.02143   -2512.3139   -22141.814   -22141.814 
    4170    7341.3596    236.28736   -2498.5656   -1397.1372   -1397.1372 
    4180    7278.7554    234.27239   -2496.5459    13635.847    13635.847 
    4190    7714.8874    248.30964   -2510.5961    13815.475    13815.475 
    4200    7943.2339    255.65915   -2517.9646    10233.894    10233.894 
    4210    7430.4755    239.15562   -2501.4245    10084.192    10084.192 
    4220    7339.6606    236.23267   -2498.5153    5732.9809    5732.9809 
    4230    7382.5994    237.61469   -2499.9019      12091.4      12091.4 
    4240     7334.211    236.05727   -2498.3274    25765.993    25765.993 
    4250    7597.5712    244.53373   -2506.8394    25882.205    25882.205 
    4260    7176.5429     230.9826   -2493.2649    33333.619    33333.619 
    4270    6893.5766    221.87511   -2484.1437    48081.325    48081.325 
    4280    7361.3973    236.93229   -2499.2317    47483.167    47483.167 
    4290    7417.0728    238.72425   -2501.0068    37938.239    37938.239 
    4300    7458.4282     240.0553   -2502.3342    18752.351    18752.351 
    4310    7635.1521     245.7433   -2508.0395   -1.0720962   -1.0720962 
    4320     7521.146    242.07392    -2504.349    293.83648    293.83648 
    4330    7673.7964    246.98709   -2509.2763    7288.1567    7288.1567 
    4340     7718.778    248.43486   -2510.7278    16233.484    16233.484 
    4350    7547.5029    242.92224   -2505.2033    21201.499    21201.499 
    4360    7470.3706    240.43967   -2502.7254    11728.244    11728.244 
    4370    7410.8725    238.52468   -2500.8088   -4356.7291   -4356.7291 
    4380    7305.4877    235.13279    -2497.427   -16810.323   -16810.323 
    4390    6960.7798     224.0381   -2486.2971   -6383.4951   -6383.4951 
    4400    7308.2089    235.22037    -2497.506    8911.8333    8911.8333 
    4410    7533.9123    242.48482   -2504.7732    7520.6761    7520.6761 
    4420    7354.3255    236.70467   -2498.9774    2621.2236    2621.2236 
    4430    7250.7602    233.37134   -2495.6546   -8578.3227   -8578.3227 
    4440    6922.5912    222.80897   -2485.0826   -14929.155   -14929.155 
    4450    6745.1595    217.09819   -2479.3638   -11204.301   -11204.301 
    4460    6954.7072    223.84265    -2486.116   -9169.9375   -9169.9375 
    4470    7208.5133     232.0116   -2494.2893   -19192.973   -19192.973 
    4480     7187.527    231.33613   -2493.6177    -28633.89    -28633.89 
    4490    6822.0903    219.57427   -2481.8396   -27866.244   -27866.244 
    4500    6770.3382    217.90859   -2480.1805   -23411.321   -23411.321 
    4510    6891.0511    221.79383     -2484.07   -11595.933   -11595.933 
    4520    7065.7462    227.41652   -2489.6837     1625.105     1625.105 
    4530    7409.4254    238.47811    -2500.775   -9601.5778   -9601.5778 
    4540    6969.8448    224.32986    -2486.597   -28462.756   -28462.756 
    4550    6742.6019    217.01587   -2479.2804    -31766.64    -31766.64 
    4560    7009.6593    225.61132   -2487.8883   -25933.882   -25933.882 
    4570    7259.2872    233.64579   -2495.9176    -19669.52    -19669.52 
    4580    7606.4829    244.82055   -2507.1144   -22267.853   -22267.853 
    4590    7475.0484    240.59023   -2502.8664   -25731.214   -25731.214 
    4600    7376.8197    237.42867   -2499.7032   -30399.064   -30399.064 
    4610    7522.0183      242.102   -2504.3799    -33614.81    -33614.81 
    4620    7520.3442    242.04811   -2504.3417   -35110.433   -35110.433 
    4630    6968.9109    224.29981   -2486.5567   -27386.771   -27386.771 
    4640    7136.0993    229.68089   -2491.9485   -23577.399   -23577.399 
    4650    7623.9334    245.38221   -2507.6776   -23139.939   -23139.939 
    4660    7379.7666    237.52351   -2499.7961   -15967.433   -15967.433 
    4670    7180.9164    231.12337   -2493.3939   -15715.997   -15715.997 
    4680    7083.7388    227.99563   -2490.2777   -29206.951   -29206.951 
    4690    6797.1213    218.77062    -2481.028    -36574.41    -36574.41 
    4700    7132.4913    229.56477   -2491.8389    -32770.23    -32770.23 
    4710    7551.0184    243.03539   -2505.3333   -12917.542   -12917.542 
    4720    7217.1535    232.28969   -2494.5525    2822.4491    2822.4491 
    4730    7271.8781    234.05104   -2496.3239    1773.3282    1773.3282 
    4740     7537.547     242.6018   -2504.8892   -6160.1756   -6160.1756 
    4750    7387.1244    237.76033   -2500.0324   -4841.7115   -4841.7115 
    4760    7151.6097    230.18011   -2492.4642    3448.7214    3448.7214 
    4770     6667.066    214.58469    -2476.844    10365.351    10365.351 
    4780    6660.2013    214.36375   -2476.6298    16233.302    16233.302 
    4790    6972.8631    224.42701    -2486.707    1018.2277    1018.2277 
    4800    7143.1626    229.90823   -2492.1728   -18887.585   -18887.585 
    4810    7547.7683    242.93078   -2505.2113   -31320.868   -31320.868 
    4820    7631.8563    245.63722   -2507.9302   -36764.044   -36764.044 
    4830     7041.045     226.6215   -2488.8887   -22349.219   -22349.219 
    4840    6870.7647    221.14089   -2483.3898   -13398.077   -13398.077 
    4850    7731.6667    248.84969   -2511.1354   -23720.333   -23720.333 
    4860    8045.4824     258.9501    -2521.254   -27820.084   -27820.084 
    4870    7268.9115    233.95556   -2496.2067   -15530.407   -15530.407 
    4880    7226.8961    232.60326   -2494.8771   -19102.789   -19102.789 
    4890    7380.9485    237.56156   -2499.8476   -29735.261   -29735.261 
    4900    7102.9878    228.61517   -2490.8911   -21746.341   -21746.341 
    4910    6818.7169     219.4657   -2481.7344   -10196.577   -10196.577 
    4920    6893.1207    221.86044   -2484.1332   -11407.848   -11407.848 
    4930    7200.2707     231.7463   -2494.0325     -23180.7     -23180.7 
    4940    7262.6744    233.75481   -2496.0329   -22213.868   -22213.868 
    4950    7199.4621    231.72027   -2493.9999   -11110.585   -11110.585 
    4960    7061.3766    227.27589   -2489.5518   -9646.5035   -9646.5035 
    4970      6948.65    223.64769   -2485.9207   -6658.9215   -6658.9215 
    4980    7082.2495     227.9477   -2490.2247   -9803.5764   -9803.5764 
    4990    7233.7584    232.82413   -2495.1186   -15893.307   -15893.307 
    5000    6883.8491    221.56203   -2483.8269    -8247.497    -8247.497 
    5010    6931.5261    223.09655   -2485.3623   -6221.2413   -6221.2413 
    5020     7331.614    235.97369    -2498.263   -15886.438   -15886.438 
    5030    7140.3095     229.8164   -2492.0941   -17893.326   -17893.326 
    5040    6980.8082    224.68273   -2486.9483    -14877.11    -14877.11 
    5050    7370.1982    237.21555   -2499.5009   -20974.144   -20974.144 
    5060    7485.1134    240.91418   -2503.1979    -27258.11    -27258.11 
    5070    7285.5172    234.49003   -2496.7709   -22541.977   -22541.977 
    5080    7037.3276    226.50185   -2488.7735   -9751.5134   -9751.5134 
    5090    7080.5052    227.89156   -2490.1822    4712.6711    4712.6711 
    5100     6968.581    224.28919   -2486.5811    16403.052    16403.052 
    5110    6730.2914    216.61965   -2478.8923    23366.536    23366.536 
    5120    7157.9003    230.38258   -2492.6598    9718.1539    9718.1539 
    5130    7761.8877    249.82238   -2512.1392   -14047.124   -14047.124 
    5140    7156.5547    230.33927   -2492.6187   -18395.641   -18395.641 
    5150    6714.9733    216.12663    -2478.383   -20945.725   -20945.725 
    5160      7338.49      236.195   -2498.4866   -30975.802   -30975.802 
    5170    7737.0642    249.02341   -2511.3224   -16228.373   -16228.373 
    5180    7451.6402    239.83682   -2502.1201   -5827.8893   -5827.8893 
    5190    7136.3973    229.69048   -2491.9717   -7756.8888   -7756.8888 
    5200     7031.981    226.32977   -2488.6111   -7899.7728   -7899.7728 
    5210    7254.7009    233.49818   -2495.7798   -9087.9638   -9087.9638 
    5220    7621.4964    245.30378   -2507.6082   -13130.134   -13130.134 
    5230    7308.6941    235.23599   -2497.5311    1677.2389    1677.2389 
    5240    6697.3271    215.55867   -2477.8255    22673.076    22673.076 
    5250    6769.4738    217.88077   -2480.1662    25836.666    25836.666 
    5260    7124.5032    229.30766    -2491.595    14690.798    14690.798 
    5270     7436.261    239.34183   -2501.6399    6743.1673    6743.1673 
    5280    7336.3929     236.1275    -2498.412    8931.9118    8931.9118 
    5290    7235.3704    232.87601   -2495.1542    10662.809    10662.809 
    5300    7445.0884    239.62595   -2501.9125    16043.401    16043.401 
    5310    7619.0892     245.2263   -2507.5244    23583.454    23583.454 
    5320    7377.1407      237.439   -2499.7235    17994.829    17994.829 
    5330    7194.0157    231.54498   -2493.8235    4339.5109    4339.5109 
    5340    7395.0935    238.01682    -2500.301   -8844.2185   -8844.2185 
    5350    7592.1459    244.35911    -2506.657   -12407.589   -12407.589 
    5360    7385.5015     237.7081   -2499.9849   -10216.402   -10216.402 
    5370    7311.5421    235.32766   -2497.6158   -17114.922   -17114.922 
    5380    7067.5451    227.47442   -2489.7531    -19449.89    -19449.89 
    5390    6945.3249    223.54067   -2485.8193   -13009.073   -13009.073 
    5400    6978.0668    224.59449   -2486.8838   -4509.7317   -4509.7317 
    5410    6932.6927    223.13409   -2485.4051    -1116.963    -1116.963 
    5420    7345.2385     236.4122   -2498.7042   -5861.4952   -5861.4952 
    5430    7633.1128    245.67766   -2507.9725   -10026.898   -10026.898 
    5440    7495.0594     241.2343   -2503.5205   -3332.2784   -3332.2784 
    5450    7330.4768    235.93708   -2498.2104   -3687.7385   -3687.7385 
    5460    7653.6866    246.33984   -2508.6224    -6657.713    -6657.713 
    5470    7998.7875    257.44718   -2519.7505   -6960.0072   -6960.0072 
    5480    7680.2447    247.19464   -2509.4787    791.74322    791.74322 
    5490    7453.0035     239.8807   -2502.1566    19334.896    19334.896 
    5500    7629.9325     245.5753   -2507.8773    25668.821    25668.821 
    5510    7400.3406    238.18571   -2500.4656    23007.942    23007.942 
    5520    7516.9823    241.93991   -2504.2205    11306.464    11306.464 
    5530    7852.6367    252.74321   -2515.0584    2983.5455    2983.5455 
    5540    7330.9224    235.95143   -2498.2283   -293.69655   -293.69655 
    5550    7001.0441    225.33404   -2487.6045   -3772.8561   -3772.8561 
    5560    7204.0027    231.86642   -2494.1509    -9100.839    -9100.839 
    5570    7259.3157    233.64671   -2495.9356    -11215.36    -11215.36 
    5580    7062.9074    227.32516   -2489.6008    115.72615    115.72615 
    5590    7095.0999     228.3613   -2490.6468    7747.2247    7747.2247 
    5600    7090.0509    228.19879   -2490.4749    2965.6384    2965.6384 
    5610    7250.0039      233.347   -2495.6352    444.70491    444.70491 
    5620    7171.6004    230.82353   -2493.0983    4491.4617    4491.4617 
    5630    7303.4305    235.06658   -2497.3373    -6125.467    -6125.467 
    5640    7615.7069    245.11744   -2507.4263   -15117.695   -15117.695 
    5650    7008.3248    225.56837    -2487.831   -3509.5635   -3509.5635 
    5660    6859.5521    220.78001   -2483.0555    12549.794    12549.794 
    5670    7033.7033     226.3852   -2488.6651    10737.708    10737.708 
    5680    7033.2989    226.37218   -2488.6632    3396.9434    3396.9434 
    5690    6660.0066    214.35748   -2476.6191   -4543.9737   -4543.9737 
    5700    6915.1084    222.56813    -2484.835   -12349.644   -12349.644 
    5710    7581.8815    244.02874   -2506.3226   -20196.241   -20196.241 
    5720    7542.8713    242.77317   -2505.0516   -11978.487   -11978.487 
    5730    7277.7104    234.23876   -2496.5068   -3018.1003   -3018.1003 
    5740    7230.6478    232.72401   -2494.9989    1329.7919    1329.7919 
    5750    7250.5165     233.3635   -2495.6331     17130.03     17130.03 
    5760    7506.6883    241.60859   -2503.8902    18707.403    18707.403 
    5770    7634.9547    245.73694   -2508.0197    10542.886    10542.886 
    5780    7534.3117    242.49767    -2504.777    11534.292    11534.292 
    5790    7358.7755     236.8479   -2499.1205    16896.536    16896.536 
    5800    7309.9572    235.27665   -2497.5573    19342.335    19342.335 
    5810    7237.8255    232.95503    -2495.238     22382.29     22382.29 
    5820     7176.408    230.97826    -2493.251    17026.369    17026.369 
    5830    7394.5279    237.99862   -2500.2894    3051.8993    3051.8993 
    5840    7390.6367    237.87338   -2500.1585    5248.3171    5248.3171 
    5850    7329.2102    235.89632   -2498.1752     10792.26     10792.26 
    5860    7306.0195    235.14991   -2497.4412    22202.438    22202.438 
    5870    6875.0297    221.27817   -2483.5515    29024.594    29024.594 
    5880    6864.1674    220.92855   -2483.1968    18081.317    18081.317 
    5890    7395.4548    238.02845   -2500.3237    5272.7246    5272.7246 
    5900     7350.551    236.58319    -2498.873    4705.4679    4705.4679 
    5910    6942.0363    223.43483   -2485.7063     5794.769     5794.769 
    5920    6936.5887    223.25949   -2485.5349    418.93467    418.93467 
    5930    7244.5191    233.17047    -2495.459   -586.65781   -586.65781 
    5940    7361.1295    236.92367   -2499.2014    9117.0419    9117.0419 
    5950    7549.5653    242.98862   -2505.2736    6059.7912    6059.7912 
    5960    7696.5146     247.7183   -2510.0005    1414.6704    1414.6704 
    5970    7928.7979    255.19451   -2517.4737    9459.6305    9459.6305 
    5980    8084.3597    260.20139   -2522.5026    14980.267    14980.267 
    5990    7583.1323      244.069   -2506.3365    15313.956    15313.956 
    6000    7552.8069    243.09295   -2505.3643    12507.967    12507.967 
    6010    8014.6734    257.95848    -2520.252    12279.567    12279.567 
    6020    7969.5943    256.50758   -2518.8053    10806.545    10806.545 
    6030    7430.6851    239.16237   -2501.4308    12276.066    12276.066 
    6040     7421.343    238.86168   -2501.1502    7019.5382    7019.5382 
    6050    7430.6215    239.16032   -2501.4353    10622.845    10622.845 
    6060     7703.551    247.94477   -2510.2234    18462.784    18462.784 
    6070    7963.0839    256.29803   -2518.5906    19734.688    19734.688 
    6080    7734.2822    248.93388   -2511.2151     12956.68     12956.68 
    6090    7313.0823    235.37723   -2497.6531    13968.003    13968.003 
    6100     7182.878     231.1865   -2493.4523    20753.676    20753.676 
    6110    7605.1694    244.77828   -2507.0744    15267.374    15267.374 
    6120    7543.6062    242.79682   -2505.0821    9246.3472    9246.3472 
    6130    7173.9078    230.89779   -2493.1789    4434.7802    4434.7802 
    6140    6985.4538    224.83225    -2487.095    1233.4344    1233.4344 
    6150    7418.7417    238.77796   -2501.0662    981.88788    981.88788 
    6160    7694.9533    247.66805   -2509.9529    7115.0913    7115.0913 
    6170     7846.975    252.56098   -2514.8548    11127.896    11127.896 
    6180    7573.4563    243.75757   -2506.0442    13419.635    13419.635 
    6190    7324.2161    235.73558   -2498.0067    8994.8338    8994.8338 
    6200    7620.5436    245.27311   -2507.5619    3202.1667    3202.1667 
    6210    7644.0827    246.03073   -2508.3106    5502.1938    5502.1938 
    6220    7471.7684    240.48467   -2502.7674    7691.7767    7691.7767 
    6230    7225.4447    232.55655   -2494.8245    15849.784    15849.784 
    6240    7352.5262    236.64676   -2498.9383    17318.785    17318.785 
    6250    7251.0692    233.38129   -2495.6586    6612.5548    6612.5548 
    6260    7304.3833    235.09725     -2497.37   -2937.7511   -2937.7511 
    6270    7552.8407    243.09404   -2505.3855   -5971.5896   -5971.5896 
    6280    7362.5412     236.9691   -2499.2403   -3930.7036   -3930.7036 
    6290    7347.9799    236.50043   -2498.7825    -2671.306    -2671.306 
    6300    7358.7371    236.84667   -2499.1256    1051.3203    1051.3203 
    6310    7421.3068    238.86052   -2501.1476   -7720.3834   -7720.3834 
    6320    7326.3203    235.80331   -2498.0765   -13904.131   -13904.131 
    6330    7361.5876    236.93841   -2499.2286   -10222.626   -10222.626 
    6340    7127.8593    229.41568   -2491.6865   -2270.9545   -2270.9545 
    6350    7203.3745     231.8462   -2494.1119   -1073.8103   -1073.8103 
    6360     7644.171    246.03358   -2508.3336   -3617.0525   -3617.0525 
    6370    7406.3381    238.37874   -2500.6507     5952.699     5952.699 
    6380    7487.6199    240.99486   -2503.2751    15832.138    15832.138 
    6390    7664.4239    246.68543     -2508.98    20069.843    20069.843 
    6400    7408.3847    238.44461   -2500.7216    18650.905    18650.905 
    6410    7246.4772    233.23349   -2495.5196    12026.976    12026.976 
    6420      6976.21    224.53473   -2486.7986    1677.4314    1677.4314 
    6430    7178.2204     231.0366   -2493.3085   -12996.563   -12996.563 
    6440    7519.4715    242.02003   -2504.3151   -11842.678   -11842.678 
    6450     7136.503    229.69389   -2491.9782    6099.2012    6099.2012 
    6460    6642.3124    213.78798   -2476.0475    11297.208    11297.208 
    6470    7052.1335    226.97839   -2489.2626   -1540.2521   -1540.2521 
    6480    7441.1113    239.49794   -2501.7951   -9095.0147   -9095.0147 
    6490    7168.7745    230.73257   -2493.0133   -4252.4534   -4252.4534 
    6500    7013.8401    225.74589    -2488.014   -5612.2601   -5612.2601 
    6510     7248.848     233.3098   -2495.6009   -7454.8053   -7454.8053 
    6520       7248.6    233.30182   -2495.5763   -8212.9129   -8212.9129 
    6530    7451.4447    239.83053   -2502.1066   -8566.6859   -8566.6859 
    6540    7661.2681    246.58386   -2508.8771   -10695.529   -10695.529 
    6550    7272.0387    234.05621   -2496.3326    5632.5376    5632.5376 
    6560    7054.7865    227.06378   -2489.3284    18976.125    18976.125 
    6570    7488.8249    241.03364    -2503.334    19864.245    19864.245 
    6580    7369.7649     237.2016   -2499.4902    19978.876    19978.876 
    6590    7033.5058    226.37884   -2488.6543    12461.209    12461.209 
    6600    6996.7179     225.1948   -2487.4783   -1479.6458   -1479.6458 
    6610    7046.3285    226.79155   -2489.0624   -7764.8693   -7764.8693 
    6620    7423.6981    238.93748   -2501.2237   -22001.004   -22001.004 
    6630    7471.6559    240.48104   -2502.7747    -29697.76    -29697.76 
    6640    6993.6076    225.09469   -2487.3688   -29606.127   -29606.127 
    6650    6820.0296    219.50794   -2481.7772   -24840.695   -24840.695 
    6660    7236.1162    232.90002   -2495.1801   -13940.252   -13940.252 
    6670    7597.9807    244.54691   -2506.8417   -10072.612   -10072.612 
    6680     7229.731     232.6945   -2494.9783   -1864.2979   -1864.2979 
    6690    6756.5106    217.46354   -2479.7242    8712.4466    8712.4466 
    6700    7041.0363    226.62122   -2488.9098    1769.8606    1769.8606 
    6710    7211.7969    232.11728   -2494.3924   -3853.6927   -3853.6927 
    6720    7423.9003    238.94399   -2501.2272    -2648.717    -2648.717 
    6730    7518.3153    241.98281   -2504.2749    5900.3278    5900.3278 
    6740     7287.961    234.56868   -2496.8482    23739.073    23739.073 
    6750    7298.1917    234.89797    -2497.185    28834.847    28834.847 
    6760     7352.612    236.64952   -2498.9361    18809.414    18809.414 
    6770    7390.5417    237.87032   -2500.1455    3849.3238    3849.3238 
    6780    7572.9039    243.73979     -2506.02   -6433.0154   -6433.0154 
    6790    7664.9913    246.70369    -2508.993   -8139.4333   -8139.4333 
    6800      7457.09    240.01223   -2502.2956   -2316.2095   -2316.2095 
    6810    7367.0046    237.11276   -2499.4115    2867.7051    2867.7051 
    6820    6972.8749    224.42739   -2486.7011    14416.721    14416.721 
    6830    6978.6912    224.61459   -2486.8863    12156.041    12156.041 
    6840    7438.4915    239.41362   -2501.7203    1680.5291    1680.5291 
    6850    7012.0403    225.68796   -2487.9626    6478.1855    6478.1855 
    6860    6748.7176    217.21271   -2479.4845    13228.326    13228.326 
    6870    6978.4603    224.60716   -2486.8886    9495.0411    9495.0411 
    6880    7182.6541     231.1793   -2493.4636    10072.963    10072.963 
    6890    7176.4584    230.97988   -2493.2587    15759.534    15759.534 
    6900    7214.9632    232.21919   -2494.4928    14622.931    14622.931 
    6910     7522.961    242.13234   -2504.4165    3519.9713    3519.9713 
    6920    7617.4714    245.17423   -2507.4612   -489.70738   -489.70738 
    6930     7377.514    237.45101   -2499.7295     -556.785     -556.785 
    6940    7241.1465    233.06192   -2495.3275   -1024.5267   -1024.5267 
    6950     7527.478    242.27772    -2504.562   -2159.7971   -2159.7971 
    6960    7648.0437    246.15822   -2508.4486    1624.2742    1624.2742 
    6970    7211.8227    232.11811   -2494.3915    319.06206    319.06206 
    6980    7024.0341    226.07399   -2488.3369   -829.62341   -829.62341 
    6990    7388.6131    237.80825    -2500.105   -7345.8536   -7345.8536 
    7000    7147.2039     230.0383   -2492.3122   -2813.5502   -2813.5502 
    7010    6957.3496     223.9277    -2486.197    4417.4491    4417.4491 
    7020    7137.3295    229.72049   -2491.9979    3256.3137    3256.3137 
    7030    7282.3381     234.3877   -2496.6643   -3338.5862   -3338.5862 
    7040    7309.7932    235.27137   -2497.5454   -11893.461   -11893.461 
    7050    7306.1035    235.15261   -2497.4217   -17675.295   -17675.295 
    7060    7318.3254    235.54598    -2497.821   -19657.086   -19657.086 
    7070    7193.1259    231.51634   -2493.7929   -16975.781   -16975.781 
    7080    6997.6193    225.22381   -2487.4987   -5940.2685   -5940.2685 
    7090    6969.2858    224.31187    -2486.582    3305.4467    3305.4467 
    7100    7249.3253    233.32516    -2495.616    4521.8889    4521.8889 
    7110    7195.1601    231.58181   -2493.8621    7040.0825    7040.0825 
    7120    7094.4988    228.34195   -2490.6168    5813.2311    5813.2311 
    7130     7151.112    230.16409   -2492.4559   -1893.9433   -1893.9433 
    7140    6914.6449    222.55321   -2484.8288   -2802.7604   -2802.7604 
    7150    6952.7352    223.77918   -2486.0517    6016.6213    6016.6213 
    7160    7282.7821    234.40199   -2496.6889    15454.995    15454.995 
    7170    7296.8839    234.85587   -2497.1349     14255.15     14255.15 
    7180     7094.097    228.32902   -2490.6048    7111.1166    7111.1166 
    7190    7081.2707    227.91619   -2490.1828    3941.4921    3941.4921 
    7200    7448.3172    239.72987    -2502.024    8160.5554    8160.5554 
    7210    7310.5851    235.29686   -2497.5721    4341.8097    4341.8097 
    7220    7101.2219    228.55834   -2490.8319    121.06685    121.06685 
    7230    7138.8744    229.77021   -2492.0495    -14190.86    -14190.86 
    7240    7248.5267    233.29946   -2495.5759   -16321.219   -16321.219 
    7250    7314.4956    235.42272   -2497.7105   -14470.776   -14470.776 
    7260    7191.0739    231.45029   -2493.7133   -16823.629   -16823.629 
    7270    7494.2702     241.2089   -2503.4869   -23245.277   -23245.277 
    7280    7552.8774    243.09522   -2505.3895   -34869.979   -34869.979 
    7290    6862.8575     220.8864   -2483.1493   -28599.403   -28599.403 
    7300    6651.6341    214.08801   -2476.3511    -12536.45    -12536.45 
    7310    7072.0194    227.61843   -2489.9055    2827.1151    2827.1151 
    7320    7209.7161    232.05031   -2494.3322    8067.5274    8067.5274 
    7330    7175.8066     230.9589   -2493.2336    9288.0398    9288.0398 
    7340    7283.8656    234.43687   -2496.7175     6994.671     6994.671 
    7350    7382.6861    237.61748   -2499.8996    12906.838    12906.838 
    7360    7460.6525    240.12689   -2502.4122    13992.542    13992.542 
    7370    7467.9401    240.36145   -2502.6477    8574.5067    8574.5067 
    7380    7343.9874    236.37193   -2498.6549    21073.889    21073.889 
    7390    7196.4699    231.62397   -2493.8974    26885.969    26885.969 
    7400     7233.924    232.82946   -2495.1139    24828.442    24828.442 
    7410    7171.6616    230.82549   -2493.0954    22283.171    22283.171 
    7420    7465.2877    240.27608   -2502.5562    13140.826    13140.826 
    7430    7692.3503    247.58427   -2509.8854    12158.235    12158.235 
    7440    7239.8192     233.0192   -2495.2826    33441.976    33441.976 
    7450    7420.4604    238.83328   -2501.1172    51111.822    51111.822 
    7460    7784.6451    250.55485   -2512.8603    53959.324    53959.324 
    7470    7606.9938      244.837   -2507.1056    46652.476    46652.476 
    7480    7856.9812    252.88304   -2515.1814    36489.631    36489.631 
    7490    7541.5676    242.73121   -2505.0249    39379.828    39379.828 
    7500    6896.6054     221.9726   -2484.2286    53103.004    53103.004 
    7510    7291.9344    234.69657   -2496.9915    49070.025    49070.025 
    7520    7501.7306    241.44902   -2503.7437    29677.864    29677.864 
    7530    7262.9583    233.76395   -2496.0441    8370.7885    8370.7885 
    7540     7106.978     228.7436   -2491.0258    4515.3741    4515.3741 
    7550    7130.9723    229.51588   -2491.7892   -230.50349   -230.50349 
    7560    7370.1817    237.21502    -2499.507   -9396.6185   -9396.6185 
    7570    7246.2294    233.22552   -2495.5027    -10662.67    -10662.67 
    7580    7153.4133    230.23816   -2492.5206    496.65715    496.65715 
    7590    7104.6852    228.66981    -2490.938       9924.3       9924.3 
    7600    7375.6577    237.39127    -2499.685    15266.437    15266.437 
    7610     7099.183    228.49271   -2490.7815     18577.64     18577.64 
    7620     6628.255    213.33553   -2475.5904    16262.008    16262.008 
    7630    7144.4759     229.9505   -2492.2415    9812.1637    9812.1637 
    7640    7499.8328    241.38794   -2503.6816    5991.4228    5991.4228 
    7650    7365.2095    237.05498   -2499.3379    869.52954    869.52954 
    7660    7173.2453    230.87647   -2493.1551    7985.3278    7985.3278 
    7670    7142.5604    229.88885   -2492.1666    20799.747    20799.747 
    7680    7278.0786    234.25061   -2496.5323    33962.522    33962.522 
    7690    7432.3881    239.21718    -2501.505    22511.327    22511.327 
    7700    7228.6295    232.65905     -2494.94   -4721.7208   -4721.7208 
    7710    6957.3259    223.92694   -2486.1886   -20742.491   -20742.491 
    7720    7114.7063    228.99234     -2491.28   -28058.478   -28058.478 
    7730    7109.2328    228.81617   -2491.0801   -21746.205   -21746.205 
    7740    7627.9539    245.51162   -2507.7968   -16327.907   -16327.907 
    7750    7930.5121    255.24969   -2517.5463   -10439.307   -10439.307 
    7760    7664.6203    246.69175   -2508.9616    -7325.248    -7325.248 
    7770     7731.764    248.85282   -2511.1382   -12870.196   -12870.196 
    7780    7748.4735    249.39063   -2511.6662   -17516.367   -17516.367 
    7790    7873.6325    253.41897   -2515.6912   -22635.873   -22635.873 
    7800    8126.4709    261.55677   -2523.8446   -17836.661   -17836.661 
    7810    8065.1846    259.58423    -2521.872   -3268.6972   -3268.6972 
    7820    7820.0945    251.69581   -2513.9727    5520.7628    5520.7628 
    7830    7825.6863    251.87579   -2514.1573    4190.2395    4190.2395 
    7840    7921.4807    254.95901   -2517.2559   -10513.218   -10513.218 
    7850    7586.2927    244.17072   -2506.4643   -10190.394   -10190.394 
    7860    7018.5709    225.89815   -2488.1638   -3736.8136   -3736.8136 
    7870    7173.0684    230.87077   -2493.1527   -7100.1856   -7100.1856 
    7880    7526.5907    242.24916   -2504.5349   -7282.0855   -7282.0855 
    7890    7685.1689    247.35312   -2509.6396   -9534.3048   -9534.3048 
    7900    7488.0843     241.0098   -2503.3018   -12890.893   -12890.893 
    7910    7002.6577    225.38597   -2487.6471   -11223.081   -11223.081 
    7920    7196.3348    231.61962   -2493.8974   -16905.449   -16905.449 
    7930    7464.1415    240.23919   -2502.5222   -16585.349   -16585.349 
    7940    7469.1339    240.39987   -2502.6822   -13779.984   -13779.984 
    7950    7385.0443    237.69338   -2499.9648    -4335.849    -4335.849 
    7960    7522.3775    242.11356   -2504.4015   -7587.0174   -7587.0174 
    7970    7460.8483    240.13319   -2502.4137   -12911.713   -12911.713 
    7980    7291.8879    234.69507   -2496.9742   -19240.881   -19240.881 
    7990     7313.321    235.38491    -2497.664    -20650.67    -20650.67 
    8000    7431.0484    239.17406   -2501.4571   -14873.952   -14873.952 
    8010    7430.4912    239.15612   -2501.4437   -13007.444   -13007.444 
    8020    7252.1785    233.41699   -2495.6897   -4578.4724   -4578.4724 
    8030     7322.561    235.68231   -2497.9641    2608.1999    2608.1999 
    8040      7474.55    240.57419   -2502.8574    1306.4248    1306.4248 
    8050    7457.2132     240.0162   -2502.2999     4917.772     4917.772 
    8060     7358.405    236.83598   -2499.1161    17068.648    17068.648 
    8070    7318.3783    235.54769   -2497.8352    15286.384    15286.384 
    8080    7120.1844    229.16866   -2491.4473     2918.591     2918.591 
    8090    7019.1973    225.91831   -2488.1932     8098.204     8098.204 
    8100    7207.8431    231.99002    -2494.276    23372.588    23372.588 
    8110    7285.0921    234.47634   -2496.7669    29910.373    29910.373 
    8120    7138.1664    229.74742    -2492.012    21455.339    21455.339 
    8130    7539.5848    242.66739   -2504.9678    5742.4486    5742.4486 
    8140    7482.7026    240.83659   -2503.1263    9685.5327    9685.5327 
    8150     7149.105    230.09949   -2492.3707    20257.187    20257.187 
    8160    7407.7501    238.42419    -2500.705    19215.408    19215.408 
    8170    7884.4753    253.76796   -2516.0552    11153.722    11153.722 
    8180    8103.7769    260.82635   -2523.1266    9189.1414    9189.1414 
    8190    7701.7361    247.88635   -2510.1623    13239.745    13239.745 
    8200    7623.6855    245.37423   -2507.6608    16819.184    16819.184 
    8210     7593.243    244.39442   -2506.6994    21109.409    21109.409 
    8220    7176.9225    230.99482   -2493.2576    27719.212    27719.212 
    8230    7622.6036    245.33941   -2507.6377    26121.419    26121.419 
    8240    7651.7445    246.27734    -2508.559    31804.612    31804.612 
    8250    7569.0831    243.61681   -2505.8933    29895.287    29895.287 
    8260    7681.3316    247.22962   -2509.5173    24300.014    24300.014 
    8270    7669.8553    246.86024   -2509.1462    25823.929    25823.929 
    8280    7523.5404    242.15099   -2504.4319    23903.297    23903.297 
    8290     7561.777    243.38166   -2505.6521    17322.274    17322.274 
    8300    7950.6449    255.89768   -2518.2029    9272.7674    9272.7674 
    8310    7560.3728    243.33647   -2505.6134    14202.886    14202.886 
    8320    7197.5739     231.6595   -2493.9352    29970.362    29970.362 
    8330    7198.6424    231.69389   -2493.9752    37441.824    37441.824 
    8340    7521.9329    242.09925   -2504.3851    31182.319    31182.319 
    8350    7846.0847    252.53233   -2514.8186    22078.417    22078.417 
    8360    7901.2034    254.30636   -2516.5881    6241.5271    6241.5271 
    8370    7988.6015    257.11934   -2519.4032   -13672.764   -13672.764 
    8380    7925.2295    255.07966   -2517.3735   -18318.831   -18318.831 
    8390    7411.5528    238.54658   -2500.8255   -7896.0172   -7896.0172 
    8400    7230.1222    232.70709   -2494.9827    11666.686    11666.686 
    8410    7473.4802    240.53976   -2502.8309    21676.982    21676.982 
    8420    7470.7716    240.45258   -2502.7476    20614.334    20614.334 
    8430    7134.6356    229.63378   -2491.9052     11395.28     11395.28 
    8440     7130.388    229.49707   -2491.7741    1250.0772    1250.0772 
    8450    7263.4504    233.77979    -2496.067    2582.1757    2582.1757 
    8460    7074.6073    227.70173    -2489.977    17092.174    17092.174 
    8470    7123.0836    229.26197   -2491.5336     20644.96     20644.96 
    8480    7462.9926    240.20221   -2502.4901    21611.159    21611.159 
    8490    7441.1336    239.49866   -2501.7861    37165.892    37165.892 
    8500    7136.8523    229.70513   -2491.9817     46610.91     46610.91 
    8510    7101.0569    228.55303   -2490.8336    52702.157    52702.157 
    8520    7225.1689    232.54767   -2494.8352    58064.977    58064.977 
    8530    7210.5428    232.07692    -2494.357    55333.089    55333.089 
    8540    7291.0458    234.66797   -2496.9488    44658.068    44658.068 
    8550    7445.5291    239.64013   -2501.9255    36590.934    36590.934 
    8560    7385.6604    237.71321   -2500.0042    45125.562    45125.562 
    8570    7415.1153    238.66124   -2500.9314    46271.156    46271.156 
    8580    8060.8151    259.44359   -2521.7613    30168.779    30168.779 
    8590     7657.868    246.47442   -2508.7627     34355.16     34355.16 
    8600    7111.9453    228.90348   -2491.1723    43019.764    43019.764 
    8610     7218.282    232.32601    -2494.619    45187.969    45187.969 
    8620    7135.7519    229.66971   -2491.9507    40836.093    40836.093 
    8630     7093.632    228.31405   -2490.5906    38946.941    38946.941 
    8640    7221.5745    232.43198   -2494.7226    30783.014    30783.014 
    8650    7145.1579    229.97245   -2492.2507     24378.88     24378.88 
    8660     7176.611    230.98479   -2493.2706    20296.763    20296.763 
    8670     7170.957    230.80282   -2493.0849    16284.787    16284.787 
    8680    7212.1436    232.12844   -2494.4151    19720.331    19720.331 
    8690    7171.8881    230.83279   -2493.1165    26025.362    26025.362 
    8700    7145.2644    229.97588   -2492.2529    33330.724    33330.724 
    8710    7414.0391     238.6266   -2500.9167    26812.445    26812.445 
    8720    7461.6321    240.15842   -2502.4514    12487.627    12487.627 
    8730    7254.3862    233.48805   -2495.7508    10023.761    10023.761 
    8740    7804.0453    251.17925   -2513.4717    10870.908    10870.908 
    8750    8039.4406    258.75564   -2521.0557    26747.663    26747.663 
    8760    7607.8433    244.86434   -2507.1448    46278.609    46278.609 
    8770    7424.0033    238.94731   -2501.2229    47271.785    47271.785 
    8780    7707.0578    248.05764   -2510.3522    37226.626    37226.626 
    8790    7754.1631    249.57376   -2511.8687    39582.578    39582.578 
    8800    7463.7622    240.22698   -2502.5001    51484.433    51484.433 
    8810    7594.2616     244.4272    -2506.706    48136.637    48136.637 
    8820    7825.5672    251.87195   -2514.1721    35654.145    35654.145 
    8830    7503.8809    241.51823   -2503.7956    31331.968    31331.968 
    8840    7383.7685    237.65232   -2499.9255    24157.528    24157.528 
    8850    7576.6338    243.85984   -2506.1534    14043.157    14043.157 
    8860    7483.7372    240.86989   -2503.1564    13780.347    13780.347 
    8870    7434.4744    239.28433   -2501.5599    19164.011    19164.011 
    8880    7812.1167    251.43904   -2513.7314    15624.867    15624.867 
    8890    7999.0738     257.4564   -2519.7454    9617.1874    9617.1874 
    8900    7961.4028    256.24393   -2518.5359    3496.5014    3496.5014 
    8910    7615.1036    245.09802   -2507.3903    17542.567    17542.567 
    8920    7059.6141    227.21916   -2489.4938    43311.896    43311.896 
    8930    7171.9917    230.83612   -2493.1006    50927.451    50927.451 
    8940    8072.0162    259.80411   -2522.1226    43699.201    43699.201 
    8950    7982.0732    256.90922   -2519.2086    46072.754    46072.754 
    8960    7505.4933    241.57013   -2503.8452    36656.308    36656.308 
    8970    7765.4254    249.93624   -2512.2272    19666.297    19666.297 
    8980    8100.0781     260.7073   -2523.0142    13288.927    13288.927 
    8990    7884.4145      253.766   -2516.0391    11483.313    11483.313 
    9000    8206.4905    264.13226   -2526.4335    3709.8309    3709.8309 
    9010    8145.8561     262.1807   -2524.4907    737.66545    737.66545 
    9020    7251.2459    233.38698   -2495.6504    15195.465    15195.465 
    9030    7307.4735    235.19671    -2497.477    18288.931    18288.931 
    9040    7675.1703    247.03131   -2509.3352    9474.4044    9474.4044 
    9050    7368.8619    237.17254   -2499.4508     16802.35     16802.35 
    9060    7333.7657    236.04294    -2498.313     28329.59     28329.59 
    9070    7788.7603     250.6873   -2512.9977    33252.918    33252.918 
    9080    7493.7666    241.19269    -2503.482    29014.314    29014.314 
    9090    7287.5688    234.55606   -2496.8175    17463.373    17463.373 
    9100    7982.9544    256.93758   -2519.2458    5893.2942    5893.2942 
    9110    7955.0133    256.03828   -2518.3316    4917.9945    4917.9945 
    9120    7360.1146      236.891   -2499.1674      11939.6      11939.6 
    9130    7133.8085    229.60716   -2491.8724    11407.361    11407.361 
    9140    7498.6932    241.35126   -2503.6513   -1128.9224   -1128.9224 
    9150    7292.4627    234.71357   -2496.9919    1998.4969    1998.4969 
    9160    7223.7252     232.5012   -2494.7757    13570.073    13570.073 
    9170    7451.8577    239.84382   -2502.1291     11575.78     11575.78 
    9180    7426.4881    239.02728   -2501.3039    7201.1588    7201.1588 
    9190     7331.897     235.9828   -2498.2643    8335.9494    8335.9494 
    9200    7037.4538    226.50591   -2488.7729    5867.8438    5867.8438 
    9210    7033.3137    226.37266   -2488.6412   -404.69807   -404.69807 
    9220    7327.4411    235.83938   -2498.1138   -3681.8622   -3681.8622 
    9230    7597.6603    244.53659   -2506.8286     4611.774     4611.774 
    9240    7307.7276    235.20489   -2497.4744    15382.667    15382.667 
    9250    7389.7556    237.84502   -2500.1168    4920.7456    4920.7456 
    9260    7705.5853    248.01024   -2510.3151   -13657.116   -13657.116 
    9270    7143.0022    229.90307   -2492.1645   -7654.8955   -7654.8955 
    9280    7188.4137    231.36467   -2493.6313    -1417.738    -1417.738 
    9290    7913.4725    254.70125   -2516.9942   -3884.6236   -3884.6236 
    9300     8091.487    260.43079   -2522.7331    -4033.694    -4033.694 
    9310    7540.2123    242.68758   -2504.9496    1772.8625    1772.8625 
    9320    7671.0653    246.89919   -2509.1853   -4957.0886   -4957.0886 
    9330    7686.4449     247.3942   -2509.6894   -4228.2723   -4228.2723 
    9340    7233.7266     232.8231   -2495.0893    8440.0527    8440.0527 
    9350    7359.2471    236.86308    -2499.135    5550.5196    5550.5196 
    9360    7784.2469    250.54203   -2512.8285   -9726.4056   -9726.4056 
    9370     7771.354    250.12706   -2512.4072    -15893.48    -15893.48 
    9380    7575.2554    243.81547    -2506.087   -7614.2001   -7614.2001 
    9390    7674.4664    247.00866    -2509.284   -5855.0339   -5855.0339 
    9400    7800.8695    251.07704   -2513.3736   -7533.7212   -7533.7212 
    9410    7371.4452    237.25569   -2499.5259    298.90105    298.90105 
    9420    7259.6451    233.65731   -2495.9371    5168.4637    5168.4637 
    9430    7313.9861    235.40632   -2497.6944    13655.027    13655.027 
    9440    7253.9147    233.47287   -2495.7523    29116.725    29116.725 
    9450    7442.1531    239.53147     -2501.81    41581.918    41581.918 
    9460     7874.235    253.43836   -2515.7355        40914        40914 
    9470    7801.6917     251.1035   -2513.3948     43723.36     43723.36 
    9480    7432.7679     239.2294   -2501.5083    46782.226    46782.226 
    9490    7263.5598    233.78331   -2496.0671    39000.881    39000.881 
    9500    7225.7871    232.56756   -2494.8352    25304.412    25304.412 
    9510    7698.5011    247.78223   -2510.0705    13231.607    13231.607 
    9520    7939.5267    255.53983   -2517.8355    19299.887    19299.887 
    9530     7629.671    245.56688   -2507.8462    23794.514    23794.514 
    9540    7420.7726    238.84333   -2501.1238    23696.224    23696.224 
    9550    7389.8501    237.84806   -2500.1324    21200.265    21200.265 
    9560    7382.9874    237.62718   -2499.9117    13673.224    13673.224 
    9570    7456.5413    239.99457   -2502.2802     2351.711     2351.711 
    9580    7560.5942    243.34359   -2505.6282    8239.3871    8239.3871 
    9590    7583.0518    244.06641   -2506.3548    23565.878    23565.878 
    9600    7505.4669    241.56928   -2503.8464    38570.921    38570.921 
    9610    7536.7244    242.57532    -2504.868    36536.686    36536.686 
    9620    7251.1828    233.38494   -2495.6651    28004.885    28004.885 
    9630    7170.1859      230.778   -2493.0498    24559.083    24559.083 
    9640    7498.8744    241.35709   -2503.6478    21609.719    21609.719 
    9650    7603.6689    244.72998   -2507.0186    15092.224    15092.224 
    9660    7486.1151    240.94642   -2503.2318    10437.301    10437.301 
    9670    7402.9105    238.26842   -2500.5426    6738.7158    6738.7158 
    9680    7762.0659    249.82812    -2512.109    1254.7474    1254.7474 
    9690    8086.1622    260.25941   -2522.5474   -9570.6912   -9570.6912 
    9700    7995.3077    257.33518   -2519.6215   -10206.428   -10206.428 
    9710    7726.5139    248.68385   -2510.9668    5043.2133    5043.2133 
    9720    7542.3182    242.75536   -2505.0317    23959.477    23959.477 
    9730    7504.9527    241.55273   -2503.8446    23821.319    23821.319 
    9740    7264.2235    233.80467   -2496.0741    21565.946    21565.946 
    9750    7312.7409    235.36624   -2497.6583    16675.845    16675.845 
    9760    7156.6335     230.3418   -2492.6191   -1032.0905   -1032.0905 
    9770    7290.4175    234.64775   -2496.9279   -14800.591   -14800.591 
    9780    7638.7137    245.85793   -2508.1578   -13797.757   -13797.757 
    9790    7462.2546    240.17845   -2502.4579    -11649.09    -11649.09 
    9800     7461.532     240.1552    -2502.448   -13792.792   -13792.792 
    9810    7352.8727    236.65792   -2498.9467     179.0149     179.0149 
    9820    7146.5933    230.01865    -2492.298    19835.135    19835.135 
    9830    7182.9563    231.18902   -2493.4822    25181.773    25181.773 
    9840    7048.6739    226.86704   -2489.1518    20531.818    20531.818 
    9850     6864.719    220.94631   -2483.2329     9656.629     9656.629 
    9860    6798.3881     218.8114   -2481.0862    5738.2925    5738.2925 
    9870    7108.8591    228.80415   -2491.0951    6178.2867    6178.2867 
    9880    7170.2754    230.78088   -2493.0665    11794.846    11794.846 
    9890     7099.824    228.51335   -2490.7997    16902.577    16902.577 
    9900    6958.6006    223.96796   -2486.2489     15263.04     15263.04 
    9910    6995.5344    225.15671   -2487.4313    13506.183    13506.183 
    9920    7359.5175    236.87178   -2499.1696    13975.739    13975.739 
    9930     7302.404    235.03354    -2497.309    20406.475    20406.475 
    9940    7434.4879    239.28476   -2501.5687    21033.275    21033.275 
    9950    7466.1767    240.30469   -2502.5919    22880.869    22880.869 
    9960     7361.325    236.92996   -2499.2022    21489.017    21489.017 
    9970    7481.4987    240.79784   -2503.0954    17671.053    17671.053 
    9980    7090.2676    228.20577   -2490.4776    25670.846    25670.846 
    9990    7141.0958    229.84171   -2492.1184    25828.261    25828.261 
   10000    7437.9584    239.39646   -2501.6924    1918.8703    1918.8703 
Loop time of 11.6871 on 1 procs for 10000 steps with 250 atoms

Performance: 36.964 ns/day, 0.649 hours/ns, 855.646 timesteps/s
99.7% CPU use with 1 MPI tasks x no OpenMP threads

MPI task timing breakdown:
Section |  min time  |  avg time  |  max time  |%varavg| %total
---------------------------------------------------------------
Pair    | 10.959     | 10.959     | 10.959     |   0.0 | 93.77
Neigh   | 0.39914    | 0.39914    | 0.39914    |   0.0 |  3.42
Comm    | 0.05911    | 0.05911    | 0.05911    |   0.0 |  0.51
Output  | 0.22549    | 0.22549    | 0.22549    |   0.0 |  1.93
Modify  | 0.024476   | 0.024476   | 0.024476   |   0.0 |  0.21
Other   |            | 0.02007    |            |       |  0.17

Nlocal:    250 ave 250 max 250 min
Histogram: 1 0 0 0 0 0 0 0 0 0
Nghost:    862 ave 862 max 862 min
Histogram: 1 0 0 0 0 0 0 0 0 0
Neighs:    0 ave 0 max 0 min
Histogram: 1 0 0 0 0 0 0 0 0 0
FullNghs:  8434 ave 8434 max 8434 min
Histogram: 1 0 0 0 0 0 0 0 0 0

Total # of neighbors = 8434
Ave neighs/atom = 33.736
Neighbor list builds = 1000
Dangerous builds not checked

Total wall time: 0:00:11
