
# Define the lattice
variable	lattice_constant equal 6.22
lattice		diamond ${lattice_constant}
lattice		diamond 6.22
Lattice spacing in x,y,z = 6.22 6.22 6.22

# Define region
# multiples of lattice spacing
region 		simbox block 0 5 0 5 0 5

# Create Atoms
create_box 	1 simbox
Created orthogonal box = (0 0 0) to (31.1 31.1 31.1)
  1 by 1 by 1 MPI processor grid
create_atoms 	1 box
Created 1000 atoms
  Time spent = 0.000442982 secs
mass		1 18.015

velocity	all create 600.0 97287

# Define Interatomic Potential
pair_style	sw
pair_coeff	* * mW.sw mW
Reading potential file mW.sw with DATE: 2019-02-27

neighbor 	2.0 bin
neigh_modify	delay 10 check no

# Pressure computations
compute		total_press all pressure thermo_temp
compute		peratom all stress/atom NULL
compute		p all reduce sum c_peratom[1] c_peratom[2] c_peratom[3]
variable	press equal -(c_p[1]+c_p[2]+c_p[3])/(3*vol)

# Density computations
variable	total_mass equal mass(all)
variable	v equal vol
print 		${total_mass}
print 		18014.9999999997
18014.9999999997
print		$v
print		30080.231
30080.231

variable 	density equal v_total_mass/(v_v*18.015)
print 		${density}
print 		0.0332444255497899
0.0332444255497899


# Run equilibration
thermo_style	custom step temp ke pe c_total_press v_press
thermo		10
dump		1 all atom 10 ${simname}.dump
dump		1 all atom 10 mW_liquid_6.22.dump

fix 		1 all nve
#temp 300.0 300.0 100.0 iso 0.0 0.0 1000.0
timestep	0.0005
run		10000
Neighbor list info ...
  update every 1 steps, delay 10 steps, check no
  max neighbors/atom: 2000, page size: 100000
  master list distance cutoff = 6.3065
  ghost atom cutoff = 6.3065
  binsize = 3.15325, bins = 10 10 10
  1 neighbor lists, perpetual/occasional/extra = 1 0 0
  (1) pair sw, perpetual
      attributes: full, newton on
      pair build: full/bin/atomonly
      stencil: full/bin/3d
      bin: standard
Per MPI rank memory allocation (min/avg/max) = 4.438 | 4.438 | 4.438 Mbytes
Step Temp KinEng PotEng c_total_press v_press 
       0          600    77.478531   -12376.617   -14051.861   -14051.861 
      10    359.31183    46.398255   -12345.479   -13681.135   -13681.135 
      20    172.11187    22.224958   -12321.277   -13771.902   -13771.902 
      30    321.44183    41.508067   -12340.619   -14693.783   -14693.783 
      40    275.79238    35.613314   -12334.711   -14817.574   -14817.574 
      50    140.05268    18.085126   -12317.142   -14421.383   -14421.383 
      60    291.27076    37.612052   -12336.709   -14615.609   -14615.609 
      70    367.65261    47.475307   -12346.585   -14524.854   -14524.854 
      80    252.36266    32.587814   -12331.654   -13909.941   -13909.941 
      90    330.42041     42.66748   -12341.755   -13952.853   -13952.853 
     100     412.4796    53.263855   -12352.377   -14258.726   -14258.726 
     110    263.03353    33.965753    -12333.04   -14080.194   -14080.194 
     120    236.81208    30.579754   -12329.653   -14184.528   -14184.528 
     130    347.80494     44.91236    -12344.02   -14551.345   -14551.345 
     140    287.76423    37.159249   -12336.245   -14343.503   -14343.503 
     150    241.94894    31.243081   -12330.315   -14134.828   -14134.828 
     160    339.85685    43.886016   -12342.988   -14402.961   -14402.961 
     170     317.2204    40.962951   -12340.057   -14361.005   -14361.005 
     180    239.62031    30.942382   -12330.013   -14058.978   -14058.978 
     190    320.23639    41.352408   -12340.445   -14202.445   -14202.445 
     200    363.07242    46.883863   -12345.986   -14365.764   -14365.764 
     210    272.22056    35.152082   -12334.231   -14166.728   -14166.728 
     220    267.28464    34.514702   -12333.596   -14166.845   -14166.845 
     230    327.66096     42.31115   -12341.409   -14374.101   -14374.101 
     240     297.6501     38.43582   -12337.523   -14302.494   -14302.494 
     250    273.00426    35.253281   -12334.334    -14200.48    -14200.48 
     260     312.5946    40.365618   -12339.459   -14317.392   -14317.392 
     270    304.94859    39.378281   -12338.468   -14288.159   -14288.159 
     280    280.89897    36.272732   -12335.354   -14131.319   -14131.319 
     290    323.31944    41.750525   -12340.841   -14197.907   -14197.907 
     300    340.97778    44.030762   -12343.126   -14286.744   -14286.744 
     310    287.87898    37.174068   -12336.258   -14171.357   -14171.357 
     320    273.10637    35.266467   -12334.349    -14138.36    -14138.36 
     330    311.71615    40.252183   -12339.345   -14284.528   -14284.528 
     340    306.49395    39.577835   -12338.669    -14338.49    -14338.49 
     350    271.44447    35.051865   -12334.135   -14324.509   -14324.509 
     360    280.42921    36.212073   -12335.299   -14420.643   -14420.643 
     370    300.42676    38.794374   -12337.886   -14453.175   -14453.175 
     380    291.79214    37.679377   -12336.766   -14303.589   -14303.589 
     390    294.52723    38.032562   -12337.118   -14183.465   -14183.465 
     400    320.40618    41.374334   -12340.465   -14151.256   -14151.256 
     410    329.18442    42.507875   -12341.597   -14066.544   -14066.544 
     420    323.90246    41.825812   -12340.914   -14024.752   -14024.752 
     430    316.25076     40.83774   -12339.928   -14143.552   -14143.552 
     440    293.94347    37.957181   -12337.045   -14294.172   -14294.172 
     450    272.60201    35.201339   -12334.288   -14386.602   -14386.602 
     460    268.06314    34.615231   -12333.703   -14441.333   -14441.333 
     470    271.28047    35.030687   -12334.118   -14421.232   -14421.232 
     480    290.43842    37.504571   -12336.592   -14345.192   -14345.192 
     490    316.23208    40.835328   -12339.927   -14279.077   -14279.077 
     500    309.68788    39.990269   -12339.079   -14177.355   -14177.355 
     510    302.02356     39.00057   -12338.085   -14078.771   -14078.771 
     520    324.60125    41.916046   -12341.007   -14100.823   -14100.823 
     530    322.53996    41.649871   -12340.742   -14190.992   -14190.992 
     540    285.20368    36.828603   -12335.914    -14248.37    -14248.37 
     550     274.4819    35.444091    -12334.53   -14290.414   -14290.414 
     560    294.62282    38.044905   -12337.134   -14325.147   -14325.147 
     570    306.53496    39.583131   -12338.672   -14317.251   -14317.251 
     580    306.56048    39.586426   -12338.675    -14283.07    -14283.07 
     590    301.89754    38.984297   -12338.073   -14258.585   -14258.585 
     600    295.46751     38.15398   -12337.241   -14239.847   -14239.847 
     610    299.78809    38.711902     -12337.8   -14203.952   -14203.952 
     620    308.50232    39.837178   -12338.926   -14158.971   -14158.971 
     630    308.90431    39.889088   -12338.977   -14167.377   -14167.377 
     640    309.64895    39.985242   -12339.074   -14243.331   -14243.331 
     650    302.35662    39.043578   -12338.134   -14287.781   -14287.781 
     660     280.9297    36.276701   -12335.362   -14271.376   -14271.376 
     670    287.10823     37.07454   -12336.161    -14315.05    -14315.05 
     680    309.00535    39.902134   -12338.994   -14370.597   -14370.597 
     690    294.39863    38.015955   -12337.104   -14308.404   -14308.404 
     700    277.89378    35.884669   -12334.969   -14231.686   -14231.686 
     710    300.50255    38.804161   -12337.894   -14235.574   -14235.574 
     720    312.15372    40.308686     -12339.4   -14224.246   -14224.246 
     730    295.42996    38.149132   -12337.235   -14203.901   -14203.901 
     740    301.14866    38.887593   -12337.975   -14267.308   -14267.308 
     750    311.44354    40.216979   -12339.308   -14303.005   -14303.005 
     760    293.63739    37.917655   -12337.004   -14241.417   -14241.417 
     770    289.90561    37.435768   -12336.522   -14226.177   -14226.177 
     780    307.95864    39.766972   -12338.858   -14269.565   -14269.565 
     790    303.34623    39.171368    -12338.26   -14251.766   -14251.766 
     800    297.56113    38.424332    -12337.51   -14237.056   -14237.056 
     810    310.18885    40.054961   -12339.146   -14252.053   -14252.053 
     820    297.67515    38.439056   -12337.527   -14171.654   -14171.654 
     830     286.4219    36.985913   -12336.069    -14102.32    -14102.32 
     840    322.34446    41.624625   -12340.716   -14198.238   -14198.238 
     850    328.46275    42.414685   -12341.509   -14282.641   -14282.641 
     860    278.26835    35.933038   -12335.017     -14279.6     -14279.6 
     870    270.32604    34.907441   -12333.992    -14364.22    -14364.22 
     880    298.30049    38.519806   -12337.612   -14444.138   -14444.138 
     890    291.38121    37.626313   -12336.714   -14360.907   -14360.907 
     900    287.91408      37.1786   -12336.264   -14268.623   -14268.623 
     910    308.90641    39.889358   -12338.981   -14231.177   -14231.177 
     920    299.33461    38.653343   -12337.741   -14119.253   -14119.253 
     930    300.62145    38.819514   -12337.903   -14086.654   -14086.654 
     940    340.95033    44.027218   -12343.122   -14221.178   -14221.178 
     950    321.72282    41.544353   -12340.636   -14245.184   -14245.184 
     960    266.92587    34.468374   -12333.549   -14185.159   -14185.159 
     970    287.89846    37.176582   -12336.264   -14284.367   -14284.367 
     980    317.28739    40.971601   -12340.066   -14362.556   -14362.556 
     990    287.02917    37.064331    -12336.15   -14286.816   -14286.816 
    1000    280.58723    36.232477   -12335.318   -14299.624   -14299.624 
    1010    299.72985     38.70438   -12337.797   -14364.777   -14364.777 
    1020    286.48744    36.994376    -12336.08   -14278.333   -14278.333 
    1030    295.31066    38.133726   -12337.219   -14187.466   -14187.466 
    1040    332.91759    42.989943   -12342.084   -14185.251   -14185.251 
    1050    320.25327    41.354588   -12340.443   -14127.426   -14127.426 
    1060    298.14594    38.499849   -12337.585   -14116.476   -14116.476 
    1070    305.31793    39.425975   -12338.517   -14229.787   -14229.787 
    1080      289.593      37.3954   -12336.483   -14293.908   -14293.908 
    1090    281.80641    36.389911   -12335.474   -14343.084   -14343.084 
    1100    310.25205    40.063122   -12339.156   -14457.994   -14457.994 
    1110    292.94132    37.827772    -12336.92   -14442.516   -14442.516 
    1120    245.66288    31.722665   -12330.802   -14261.434   -14261.434 
    1130    286.93593     37.05229   -12336.138   -14189.366   -14189.366 
    1140    351.20664    45.351624   -12344.449   -14187.507   -14187.507 
    1150    329.62393     42.56463   -12341.653   -14109.825   -14109.825 
    1160    297.31269    38.392251   -12337.477   -14131.497   -14131.497 
    1170    300.75274    38.836467   -12337.927   -14275.216   -14275.216 
    1180    289.58636    37.394542   -12336.483   -14331.116   -14331.116 
    1190    279.60953    36.106226   -12335.192   -14308.898   -14308.898 
    1200    295.01711     38.09582   -12337.186   -14310.176   -14310.176 
    1210    297.95805    38.475586   -12337.564    -14264.74    -14264.74 
    1220    297.20803    38.378737   -12337.464   -14162.638   -14162.638 
    1230    325.76878    42.066811   -12341.156    -14108.39    -14108.39 
    1240    344.09377    44.433133   -12343.526   -14122.674   -14122.674 
    1250    313.20595    40.444562   -12339.534   -14168.987   -14168.987 
    1260    273.16646    35.274227   -12334.359   -14261.148   -14261.148 
    1270     270.0743    34.874934   -12333.961   -14386.872   -14386.872 
    1280    290.05498    37.455057   -12336.545   -14456.713   -14456.713 
    1290    294.90846    38.081791   -12337.172   -14416.652   -14416.652 
    1300    279.94495    36.149539   -12335.236   -14320.929   -14320.929 
    1310    284.70753    36.764535    -12335.85   -14265.478   -14265.478 
    1320    315.54477    40.746575   -12339.837   -14232.524   -14232.524 
    1330    326.36915    42.144337   -12341.236   -14157.422   -14157.422 
    1340    305.00161    39.385127   -12338.472   -14101.414   -14101.414 
    1350     296.1947    38.247883   -12337.334   -14178.481   -14178.481 
    1360    303.28417    39.163353   -12338.254   -14305.672   -14305.672 
    1370    289.60847    37.397398   -12336.485   -14307.671   -14307.671 
    1380    283.87452    36.656968   -12335.742   -14245.431   -14245.431 
    1390       312.41     40.34178   -12339.431   -14230.165   -14230.165 
    1400    332.12575    42.887692    -12341.98   -14229.093   -14229.093 
    1410    309.03252    39.905643   -12338.994    -14194.85    -14194.85 
    1420    284.15226    36.692833   -12335.778   -14200.117   -14200.117 
    1430    289.38421    37.368439   -12336.458   -14298.929   -14298.929 
    1440    286.91951     37.05017    -12336.14   -14388.838   -14388.838 
    1450    265.44592    34.277266   -12333.363   -14376.101   -14376.101 
    1460    272.43634    35.179945   -12334.264    -14295.16    -14295.16 
    1470    321.40387    41.503167   -12340.593   -14221.467   -14221.467 
    1480     355.6611    45.926833   -12345.021   -14160.919   -14160.919 
    1490    331.29532    42.780458    -12341.87   -14094.754   -14094.754 
    1500    289.46347    37.378673   -12336.463   -14112.586   -14112.586 
    1510    285.07343    36.811784   -12335.899   -14274.165   -14274.165 
    1520    294.55708    38.036416   -12337.127   -14422.032   -14422.032 
    1530    281.64331    36.368849   -12335.457   -14403.299   -14403.299 
    1540    273.55863    35.324868   -12334.409   -14284.115   -14284.115 
    1550    302.25048    39.029872   -12338.119   -14199.531   -14199.531 
    1560    325.99541    42.096075   -12341.187   -14137.249   -14137.249 
    1570    323.19909    41.734985   -12340.823    -14120.68    -14120.68 
    1580    315.71499    40.768555   -12339.858   -14208.932   -14208.932 
    1590     295.7187    38.186418   -12337.276   -14328.226   -14328.226 
    1600    262.86231    33.943642   -12333.029    -14387.15    -14387.15 
    1610    259.32895    33.487377   -12332.572   -14393.701   -14393.701 
    1620    295.36583    38.140851    -12337.23    -14360.89    -14360.89 
    1630    320.39356    41.372703   -12340.463   -14261.254   -14261.254 
    1640    320.24133    41.353047   -12340.442   -14148.209   -14148.209 
    1650    313.25111    40.450393   -12339.538   -14075.379   -14075.379 
    1660     311.1852     40.18362   -12339.271   -14075.063   -14075.063 
    1670    317.43107    40.990155    -12340.08   -14171.484   -14171.484 
    1680    308.62482    39.852996   -12338.943    -14293.74    -14293.74 
    1690    278.73212    35.992926    -12335.08   -14379.521   -14379.521 
    1700    264.12967    34.107297   -12333.194   -14447.498   -14447.498 
    1710    270.35285    34.910903       -12334     -14460.8     -14460.8 
    1720    276.09118    35.651899   -12334.739   -14380.563   -14380.563 
    1730     294.8848    38.078735   -12337.166   -14282.265   -14282.265 
    1740    322.34923    41.625241   -12340.717   -14195.678   -14195.678 
    1750    317.06864    40.943354   -12340.032   -14062.191   -14062.191 
    1760    310.88759     40.14519   -12339.229   -13988.688   -13988.688 
    1770    346.98765    44.806823   -12343.899   -14097.034   -14097.034 
    1780    346.37399     44.72758   -12343.822   -14202.011   -14202.011 
    1790    280.26944     36.19144   -12335.275   -14198.332   -14198.332 
    1800    254.55767    32.871257   -12331.953    -14263.18    -14263.18 
    1810    290.57383    37.522056   -12336.613   -14398.539   -14398.539 
    1820    305.06004    39.392672   -12338.484   -14430.083   -14430.083 
    1830    289.21595    37.346711   -12336.434   -14380.536   -14380.536 
    1840     284.1395    36.691185   -12335.778     -14334.6     -14334.6 
    1850    291.69335    37.666621   -12336.754   -14263.681   -14263.681 
    1860    306.95081    39.636829   -12338.725   -14185.749   -14185.749 
    1870    317.95942    41.058382   -12340.148   -14145.281   -14145.281 
    1880    311.99654    40.288389   -12339.376   -14156.375   -14156.375 
    1890    306.01425    39.515891   -12338.604   -14237.571   -14237.571 
    1900    299.63413     38.69202   -12337.782   -14328.351   -14328.351 
    1910    279.11001    36.041722   -12335.128    -14346.39    -14346.39 
    1920    278.65723    35.983255   -12335.069   -14366.381   -14366.381 
    1930    298.11726    38.496145   -12337.587   -14383.867   -14383.867 
    1940    291.33735     37.62065   -12336.709   -14282.389   -14282.389 
    1950    282.26779     36.44949   -12335.533   -14151.778   -14151.778 
    1960    314.51689    40.613844   -12339.703    -14152.51    -14152.51 
    1970    333.36316    43.047479    -12342.14   -14165.531   -14165.531 
    1980    311.96127    40.283834    -12339.37   -14116.251   -14116.251 
    1990    308.79161    39.874534   -12338.962   -14168.451   -14168.451 
    2000    314.04448    40.552842   -12339.645   -14296.784   -14296.784 
    2010    281.54161    36.355718   -12335.443   -14321.414   -14321.414 
    2020    261.69141    33.792444   -12332.875   -14307.166   -14307.166 
    2030    293.34526    37.879933    -12336.97   -14357.183   -14357.183 
    2040    312.93155    40.409128     -12339.5    -14336.49    -14336.49 
    2050    301.79202    38.970671   -12338.057   -14212.809   -14212.809 
    2060    304.81575    39.361128   -12338.447   -14128.959   -14128.959 
    2070    325.36231    42.014323   -12341.105   -14145.748   -14145.748 
    2080    320.09586    41.334262   -12340.424   -14190.745   -14190.745 
    2090    293.36873    37.882964   -12336.969   -14258.553   -14258.553 
    2100     280.7048     36.24766   -12335.335   -14357.629   -14357.629 
    2110    277.11918    35.784645   -12334.872   -14404.244   -14404.244 
    2120    279.30822    36.067318   -12335.154   -14390.306   -14390.306 
    2130     293.5587    37.907495   -12336.996    -14353.36    -14353.36 
    2140     305.8318    39.492331   -12338.582   -14280.252   -14280.252 
    2150    304.76455    39.354517   -12338.442   -14187.197   -14187.197 
    2160    311.39515    40.210732   -12339.298   -14156.586   -14156.586 
    2170     325.5238    42.035176   -12341.126   -14172.592   -14172.592 
    2180    310.04514    40.036403   -12339.125   -14148.905   -14148.905 
    2190    290.94267    37.569685   -12336.654    -14172.03    -14172.03 
    2200    303.89295    39.241966   -12338.332   -14290.496   -14290.496 
    2210    302.74897    39.094242   -12338.185   -14357.405   -14357.405 
    2220    273.72026    35.345739   -12334.431   -14353.637   -14353.637 
    2230    275.14697    35.529972   -12334.616   -14393.898   -14393.898 
    2240    292.95482    37.829515   -12336.921   -14384.674   -14384.674 
    2250    287.54687    37.131182   -12336.217   -14249.073   -14249.073 
    2260    305.84461    39.493985    -12338.58   -14168.561   -14168.561 
    2270    339.63553    43.857437   -12342.951   -14162.704   -14162.704 
    2280    318.91003    41.181135    -12340.27    -14102.66    -14102.66 
    2290    291.80514    37.681055   -12336.764    -14120.36    -14120.36 
    2300    309.15692    39.921706   -12339.013   -14277.626   -14277.626 
    2310    294.99201     38.09258   -12337.183   -14336.808   -14336.808 
    2320    260.83436    33.681772   -12332.762   -14307.925   -14307.925 
    2330    296.71602    38.315203   -12337.404   -14373.842   -14373.842 
    2340    328.39523    42.405966   -12341.502   -14368.594   -14368.594 
    2350     290.5558    37.519727   -12336.604   -14218.747   -14218.747 
    2360    283.24224    36.575321   -12335.659    -14188.94    -14188.94 
    2370    315.62187    40.756531    -12339.85    -14247.04    -14247.04 
    2380    305.92711    39.504638   -12338.593   -14201.237   -14201.237 
    2390    296.81655    38.328184   -12337.413   -14190.722   -14190.722 
    2400    317.98163    41.061249   -12340.154   -14267.005   -14267.005 
    2410    302.02665    39.000968   -12338.088   -14246.614   -14246.614 
    2420    293.55753    37.907343   -12336.991   -14246.801   -14246.801 
    2430    318.37276    41.111756   -12340.207    -14328.65    -14328.65 
    2440    283.75809    36.641933    -12335.73   -14270.528   -14270.528 
    2450    253.85666    32.780735   -12331.859   -14226.193   -14226.193 
    2460    311.40157    40.211561   -12339.305   -14351.271   -14351.271 
    2470    322.00088    41.580259   -12340.675   -14307.167   -14307.167 
    2480    269.77697    34.836538   -12333.915   -14127.479   -14127.479 
    2490    307.21629    39.671111   -12338.759    -14225.49    -14225.49 
    2500    343.69569    44.381728   -12343.482   -14351.645   -14351.645 
    2510    273.65302    35.337056   -12334.418   -14245.096   -14245.096 
    2520    266.53979    34.418519     -12333.5   -14297.988   -14297.988 
    2530    321.54256    41.521076    -12340.62   -14433.275   -14433.275 
    2540    278.65709    35.983237   -12335.069   -14253.069   -14253.069 
    2550    261.52695    33.771207   -12332.848   -14114.921   -14114.921 
    2560     349.7059    45.157832   -12344.256   -14228.089   -14228.089 
    2570    350.91423    45.313865   -12344.409   -14146.599   -14146.599 
    2580    289.53525    37.387943   -12336.466   -14011.945   -14011.945 
    2590    314.73755    40.642338   -12339.734   -14197.645   -14197.645 
    2600    310.19458    40.055701    -12339.15   -14313.376   -14313.376 
    2610    253.29778    32.708566   -12331.786   -14239.448   -14239.448 
    2620    294.59188     38.04091   -12337.129   -14360.314   -14360.314 
    2630    335.95632    43.382337   -12342.483   -14454.843   -14454.843 
    2640    267.11806    34.493192   -12333.575   -14269.497   -14269.497 
    2650     258.8672    33.427751   -12332.508   -14243.528   -14243.528 
    2660    322.80164    41.683661   -12340.782   -14376.791   -14376.791 
    2670    300.92742    38.859023   -12337.947   -14250.281   -14250.281 
    2680    278.70534    35.989468    -12335.07   -14118.315   -14118.315 
    2690    325.27708    42.003318   -12341.098   -14186.015   -14186.015 
    2700    319.82116    41.298789   -12340.389   -14137.007   -14137.007 
    2710    296.81787    38.328354   -12337.409   -14086.355   -14086.355 
    2720    336.55458     43.45959   -12342.554   -14290.206   -14290.206 
    2730    318.73309    41.158286   -12340.253   -14397.804   -14397.804 
    2740    241.29734    31.158939   -12330.238   -14308.976   -14308.976 
    2750    252.33311    32.583998   -12331.668   -14365.928   -14365.928 
    2760    305.47069    39.445701   -12338.541   -14429.444   -14429.444 
    2770    299.72977    38.704371   -12337.791   -14240.702   -14240.702 
    2780    308.16736    39.793924   -12338.879   -14100.813   -14100.813 
    2790    342.74685    44.259205   -12343.353   -14155.665   -14155.665 
    2800    323.66279    41.794862   -12340.884   -14170.063   -14170.063 
    2810    288.12996    37.206476   -12336.291   -14169.051   -14169.051 
    2820    285.45676    36.861284    -12335.95   -14258.238   -14258.238 
    2830    285.52897    36.870608   -12335.959   -14312.785   -14312.785 
    2840    289.07859    37.328975   -12336.416   -14313.257   -14313.257 
    2850    301.49146    38.931859   -12338.022   -14331.463   -14331.463 
    2860    295.16077    38.114371   -12337.201   -14301.153   -14301.153 
    2870    299.91988    38.728919   -12337.815   -14267.679   -14267.679 
    2880    320.08035    41.332259   -12340.425   -14290.577   -14290.577 
    2890    295.79978    38.196887   -12337.286   -14239.339   -14239.339 
    2900    268.64498    34.690364   -12333.771   -14140.798   -14140.798 
    2910    315.60715     40.75463   -12339.844   -14191.994   -14191.994 
    2920    349.81822    45.172337    -12344.27    -14289.13    -14289.13 
    2930    293.42767    37.890574   -12336.977   -14257.951   -14257.951 
    2940     253.1841    32.693886   -12331.775   -14259.827   -14259.827 
    2950    284.36662    36.720514   -12335.811   -14360.489   -14360.489 
    2960    301.59816    38.945637   -12338.036   -14354.023   -14354.023 
    2970    299.34522    38.654713    -12337.74   -14236.302   -14236.302 
    2980    324.89385     41.95383   -12341.044   -14171.612   -14171.612 
    2990    327.61679    42.305446   -12341.397   -14126.269   -14126.269 
    3000    298.58468    38.556504   -12337.641   -14094.545   -14094.545 
    3010    305.19347    39.409902   -12338.498   -14182.461   -14182.461 
    3020    314.89242    40.662337   -12339.756   -14298.373   -14298.373 
    3030    275.51926    35.578046   -12334.664   -14316.612   -14316.612 
    3040     261.1711    33.725255   -12332.808   -14346.292   -14346.292 
    3050    296.69409    38.312371   -12337.404   -14396.498   -14396.498 
    3060    306.48956    39.577268   -12338.667    -14344.34    -14344.34 
    3070    299.28179    38.646523   -12337.733   -14266.858   -14266.858 
    3080    308.07623    39.782156   -12338.872   -14235.535   -14235.535 
    3090    299.66033    38.695403   -12337.783   -14181.292   -14181.292 
    3100    296.13937    38.240739   -12337.326   -14177.664   -14177.664 
    3110    317.72914    41.028645   -12340.121   -14261.005   -14261.005 
    3120    297.08941    38.363419   -12337.453   -14267.114   -14267.114 
    3130    266.58094    34.423833   -12333.505   -14265.415   -14265.415 
    3140    303.41634    39.180421    -12338.27   -14373.693   -14373.693 
    3150    324.10241    41.851632   -12340.946   -14356.086   -14356.086 
    3160    285.72571    36.896014   -12335.979   -14173.732   -14173.732 
    3170    297.37164    38.399863   -12337.486   -14136.149   -14136.149 
    3180    331.97098    42.867706   -12341.963    -14173.01    -14173.01 
    3190    300.28187    38.775664   -12337.862    -14101.47    -14101.47 
    3200     289.4671    37.379143   -12336.462   -14155.459   -14155.459 
    3210    327.22999    42.255498   -12341.351   -14353.933   -14353.933 
    3220    299.18876    38.634509   -12337.726   -14380.361   -14380.361 
    3230    244.18295     31.53156   -12330.611   -14311.059   -14311.059 
    3240     275.7274    35.604923   -12334.693   -14369.463   -14369.463 
    3250    317.16658    40.956001    -12340.05   -14343.592   -14343.592 
    3260    306.13186    39.531078   -12338.617   -14173.068   -14173.068 
    3270    311.07864     40.16986   -12339.257   -14122.798   -14122.798 
    3280    323.32699      41.7515   -12340.843   -14159.165   -14159.165 
    3290    305.00956    39.386154   -12338.473    -14152.63    -14152.63 
    3300    301.34116     38.91245   -12337.999   -14209.105   -14209.105 
    3310     310.4571    40.089601   -12339.182   -14308.745   -14308.745 
    3320    281.03205    36.289917   -12335.377   -14303.303   -14303.303 
    3330    263.60824    34.039965   -12333.123   -14302.317   -14302.317 
    3340    295.90905    38.210997   -12337.301    -14362.55    -14362.55 
    3350    312.68753    40.377617   -12339.468   -14308.387   -14308.387 
    3360    304.94097    39.377297   -12338.464   -14199.281   -14199.281 
    3370    311.97488    40.285592   -12339.375   -14218.983   -14218.983 
    3380    305.25673    39.418072   -12338.508   -14244.144   -14244.144 
    3390    284.40122    36.724981   -12335.809   -14194.038   -14194.038 
    3400    300.99659    38.867956   -12337.955   -14226.262   -14226.262 
    3410    323.18858    41.733627   -12340.828   -14301.572   -14301.572 
    3420    288.04878    37.195994   -12336.283   -14241.964   -14241.964 
    3430    265.19173    34.244443   -12333.326    -14205.35    -14205.35 
    3440    309.22824    39.930916   -12339.022   -14312.488   -14312.488 
    3450    325.48775    42.030521   -12341.124    -14319.32    -14319.32 
    3460    289.70812    37.410266   -12336.495   -14204.079   -14204.079 
    3470    288.09001    37.201318   -12336.287   -14217.024   -14217.024 
    3480    311.43551    40.215943   -12339.309   -14313.639   -14313.639 
    3490    296.50805    38.288347   -12337.376    -14287.64    -14287.64 
    3500    287.00261      37.0609   -12336.146   -14244.414   -14244.414 
    3510    305.16414    39.406116   -12338.498   -14264.344   -14264.344 
    3520    295.11919    38.109003   -12337.198    -14202.78    -14202.78 
    3530    285.59689     36.87938   -12335.963   -14115.087   -14115.087 
    3540    323.10583    41.722942   -12340.814   -14144.572   -14144.572 
    3550    338.25368    43.678998   -12342.772   -14176.063   -14176.063 
    3560    306.19246    39.538904   -12338.625   -14178.661   -14178.661 
    3570    294.79619    38.067293   -12337.155   -14288.105   -14288.105 
    3580    290.99229    37.576092   -12336.667   -14390.716   -14390.716 
    3590    269.78333     34.83736   -12333.923   -14356.179   -14356.179 
    3600    278.01366     35.90015   -12334.986   -14296.133   -14296.133 
    3610    306.75415    39.611435   -12338.702   -14242.097   -14242.097 
    3620     311.0772    40.169674   -12339.258   -14142.116   -14142.116 
    3630    312.56652    40.361991    -12339.45   -14115.054   -14115.054 
    3640    318.23468    41.093926   -12340.185   -14225.087   -14225.087 
    3650    298.11654    38.496052   -12337.584   -14324.512   -14324.512 
    3660    280.14367      36.1752   -12335.261   -14350.034   -14350.034 
    3670    287.44505    37.118034   -12336.207   -14347.937   -14347.937 
    3680    288.38707    37.239678   -12336.328   -14311.555   -14311.555 
    3690    289.62094    37.399008   -12336.486   -14264.954   -14264.954 
    3700    304.78514    39.357175   -12338.447   -14241.391   -14241.391 
    3710    305.72018    39.477918   -12338.567    -14211.69    -14211.69 
    3720    297.12902    38.368534   -12337.455   -14178.066   -14178.066 
    3730    306.56184    39.586601   -12338.675   -14187.354   -14187.354 
    3740     316.7644    40.904068   -12339.994   -14217.853   -14217.853 
    3750    307.31747    39.684177   -12338.772   -14195.753   -14195.753 
    3760    297.50244    38.416754   -12337.503   -14144.064   -14144.064 
    3770    303.82877    39.233678   -12338.322    -14184.49    -14184.49 
    3780    307.42248    39.697737   -12338.789   -14316.893   -14316.893 
    3790    283.02989    36.547899   -12335.637   -14371.037   -14371.037 
    3800    259.67103     33.53155   -12332.614   -14312.087   -14312.087 
    3810    297.04145    38.357225   -12337.444    -14289.82    -14289.82 
    3820    347.71608    44.900885   -12343.997   -14245.413   -14245.413 
    3830    323.01442    41.711138     -12340.8    -14068.36    -14068.36 
    3840    288.85617    37.300253   -12336.382   -14019.255   -14019.255 
    3850    312.30661    40.328429    -12339.42   -14213.934   -14213.934 
    3860    311.33969     40.20357   -12339.296   -14335.068   -14335.068 
    3870    270.44015    34.922176   -12334.006   -14332.048   -14332.048 
    3880    271.46766     35.05486   -12334.142   -14419.621   -14419.621 
    3890    288.27485    37.225186   -12336.316   -14457.379   -14457.379 
    3900    280.82406    36.263059   -12335.349   -14323.377   -14323.377 
    3910    296.54939    38.293685   -12337.381    -14223.67    -14223.67 
    3920    319.86194    41.304055   -12340.397   -14173.973   -14173.973 
    3930    305.02148    39.387693   -12338.474   -14073.089   -14073.089 
    3940    311.45895    40.218969   -12339.304   -14099.146   -14099.146 
    3950     341.5214     44.10096   -12343.196   -14238.251   -14238.251 
    3960    308.88041    39.886001   -12338.975   -14208.079   -14208.079 
    3970    273.71337     35.34485   -12334.426   -14174.593   -14174.593 
    3980    301.63746    38.950712   -12338.042   -14341.898   -14341.898 
    3990    298.49484    38.544903   -12337.638   -14425.469   -14425.469 
    4000    250.12254    32.298545    -12331.38   -14331.168   -14331.168 
    4010    271.55965    35.066737   -12334.151    -14347.84    -14347.84 
    4020    327.78182    42.326757   -12341.423   -14385.979   -14385.979 
    4030    310.06352    40.038777   -12339.127   -14198.875   -14198.875 
    4040    292.26068     37.73988   -12336.822   -14069.337   -14069.337 
    4050    333.13852    43.018471   -12342.111   -14169.354   -14169.354 
    4060    331.75849    42.840267   -12341.933   -14188.844   -14188.844 
    4070      285.574    36.876424   -12335.959   -14134.514   -14134.514 
    4080    290.52975    37.516364   -12336.604   -14267.503   -14267.503 
    4090    300.90257    38.855815   -12337.949   -14382.329   -14382.329 
    4100    268.58318    34.682384   -12333.767   -14295.451   -14295.451 
    4110    277.32835    35.811656   -12334.895   -14265.536   -14265.536 
    4120    328.13389     42.37222   -12341.467   -14320.191   -14320.191 
    4130    316.46102    40.864891   -12339.955   -14198.004   -14198.004 
    4140    285.91544    36.920514   -12336.001   -14078.869   -14078.869 
    4150    323.85825    41.820103   -12340.911   -14213.636   -14213.636 
    4160    331.77823    42.842816   -12341.939   -14304.692   -14304.692 
    4170    266.90243    34.465348   -12333.548   -14223.802   -14223.802 
    4180     259.5828    33.520157   -12332.602   -14276.682   -14276.682 
    4190     311.6344    40.241626   -12339.336   -14405.724   -14405.724 
    4200    306.17629    39.536815   -12338.627   -14339.413   -14339.413 
    4210    278.72355    35.991819   -12335.075   -14251.708   -14251.708 
    4220    297.46205    38.411537   -12337.501   -14269.954   -14269.954 
    4230    311.54305     40.22983   -12339.319   -14188.456   -14188.456 
    4240    314.69355    40.636657   -12339.722   -14084.856   -14084.856 
    4250    336.62328    43.468462    -12342.56   -14160.319   -14160.319 
    4260    320.30804    41.361661   -12340.454   -14243.561   -14243.561 
    4270    265.60154    34.297362    -12333.38   -14265.591   -14265.591 
    4280    262.57724    33.906831   -12332.993   -14409.623   -14409.623 
    4290     282.0262    36.418292   -12335.511   -14518.375   -14518.375 
    4300    265.31005    34.259722   -12333.344   -14399.429   -14399.429 
    4310    282.95583    36.538336   -12335.622   -14281.076   -14281.076 
    4320    338.99847    43.775173    -12342.87   -14220.201   -14220.201 
    4330    331.99852    42.871263   -12341.961   -13996.482   -13996.482 
    4340    312.01842    40.291215   -12339.373    -13860.12    -13860.12 
    4350    351.89597    45.440638   -12344.535   -14090.521   -14090.521 
    4360    334.53692    43.199049   -12342.295   -14303.219   -14303.219 
    4370    245.31722    31.678029   -12330.757   -14293.502   -14293.502 
    4380    249.60622    32.231873   -12331.313   -14389.102   -14389.102 
    4390    321.83329    41.558618   -12340.657   -14525.549   -14525.549 
    4400     299.0467    38.616165   -12337.706   -14348.513   -14348.513 
    4410    260.74195    33.669839   -12332.748   -14153.047   -14153.047 
    4420    311.64456    40.242938   -12339.335   -14235.012   -14235.012 
    4430    328.45064    42.413122   -12341.508   -14257.652   -14257.652 
    4440     282.7564    36.512584   -12335.594   -14161.725   -14161.725 
    4450    298.80264    38.584649   -12337.672   -14252.858   -14252.858 
    4460    323.41493    41.762856   -12340.859   -14337.806   -14337.806 
    4470    275.08064    35.521406   -12334.604   -14200.899   -14200.899 
    4480    278.52634    35.966353   -12335.048    -14188.78    -14188.78 
    4490    339.43891    43.832046   -12342.929   -14318.579   -14318.579 
    4500    316.62891    40.886571   -12339.977   -14246.551   -14246.551 
    4510    269.21393    34.763834   -12333.844   -14164.703   -14164.703 
    4520    292.20899    37.733205   -12336.824   -14297.191   -14297.191 
    4530    295.75555    38.191175   -12337.282    -14330.45    -14330.45 
    4540     280.7531    36.253897   -12335.336   -14244.132   -14244.132 
    4550    322.42953    41.635611   -12340.727   -14293.475   -14293.475 
    4560    332.15709     42.89174   -12341.987   -14292.108   -14292.108 
    4570    278.72214    35.991636   -12335.073   -14133.973   -14133.973 
    4580    289.04696    37.324889    -12336.41   -14138.307   -14138.307 
    4590     331.5169    42.809071   -12341.906    -14260.53    -14260.53 
    4600    298.45156    38.539314   -12337.626   -14238.114   -14238.114 
    4610    278.32321    35.940123   -12335.023   -14284.447   -14284.447 
    4620    306.96571    39.638754   -12338.733   -14449.166   -14449.166 
    4630    284.84193     36.78189    -12335.87   -14397.959   -14397.959 
    4640    264.27946     34.12664   -12333.207   -14228.214   -14228.214 
    4650    314.06879    40.555981   -12339.648   -14196.087   -14196.087 
    4660    331.39381    42.793176   -12341.886   -14131.674   -14131.674 
    4670    301.74046    38.964012   -12338.048   -14027.186   -14027.186 
    4680    312.23688    40.319424   -12339.407   -14125.832   -14125.832 
    4690    324.79567    41.941152   -12341.035   -14319.947   -14319.947 
    4700    283.09906    36.556832   -12335.644   -14374.683   -14374.683 
    4710    254.82646    32.905966   -12331.989   -14380.196   -14380.196 
    4720    277.54841    35.840072   -12334.929   -14406.371   -14406.371 
    4730    302.81462    39.102719   -12338.192    -14331.07    -14331.07 
    4740    312.19071    40.313462   -12339.402    -14178.38    -14178.38 
    4750    314.57435    40.621264   -12339.709   -14081.167   -14081.167 
    4760     321.2538    41.483787   -12340.572   -14075.132   -14075.132 
    4770    327.46362    42.285667   -12341.377   -14111.799   -14111.799 
    4780    305.75208    39.482037   -12338.571   -14167.055   -14167.055 
    4790     282.4036    36.467027   -12335.552   -14295.593   -14295.593 
    4800     288.4781    37.251432   -12336.341   -14442.655   -14442.655 
    4810    282.48385     36.47739   -12335.567   -14438.658   -14438.658 
    4820    263.46411    34.021354   -12333.105     -14324.3     -14324.3 
    4830    292.62814     37.78733   -12336.874   -14290.804   -14290.804 
    4840    330.64907    42.697007   -12341.792     -14287.9     -14287.9 
    4850    306.98747    39.641563   -12338.729   -14178.675   -14178.675 
    4860    287.69735    37.150614   -12336.234   -14107.112   -14107.112 
    4870    312.33876     40.33258   -12339.423   -14179.075   -14179.075 
    4880    315.48214    40.738488   -12339.829   -14272.034   -14272.034 
    4890    291.04284    37.582619   -12336.669   -14309.717   -14309.717 
    4900     285.0776    36.812323   -12335.899   -14297.527   -14297.527 
    4910    296.12462    38.238835   -12337.327   -14249.585   -14249.585 
    4920    308.40815    39.825017   -12338.914   -14223.024   -14223.024 
    4930    314.13003    40.563889   -12339.655   -14226.982   -14226.982 
    4940    295.72363    38.187054   -12337.274   -14189.235   -14189.235 
    4950    286.97111    37.056833   -12336.142   -14182.633   -14182.633 
    4960    308.98791    39.899882    -12338.99   -14259.191   -14259.191 
    4970    312.41162    40.341989   -12339.432   -14295.438   -14295.438 
    4980    294.56245     38.03711   -12337.124   -14287.884   -14287.884 
    4990    291.69146    37.666377   -12336.755   -14306.005   -14306.005 
    5000    289.78691    37.420441   -12336.509    -14281.05    -14281.05 
    5010    287.62039    37.140676   -12336.226   -14210.328   -14210.328 
    5020    310.58894    40.106624   -12339.196   -14195.145   -14195.145 
    5030    320.04125     41.32721   -12340.418   -14185.135   -14185.135 
    5040    304.33554    39.299117   -12338.385   -14181.047   -14181.047 
    5050    307.03518    39.647725   -12338.736   -14268.959   -14268.959 
    5060     305.2794       39.421   -12338.512   -14337.796   -14337.796 
    5070    275.20375    35.537304   -12334.623    -14301.78    -14301.78 
    5080    272.23652    35.154142   -12334.239   -14307.808   -14307.808 
    5090      300.758    38.837147   -12337.929   -14360.203   -14360.203 
    5100    298.91204    38.598776   -12337.688   -14281.503   -14281.503 
    5110    292.38222    37.755575    -12336.84   -14165.713   -14165.713 
    5120    322.33394    41.623266   -12340.714   -14189.809   -14189.809 
    5130    331.54088    42.812167   -12341.904   -14236.397   -14236.397 
    5140    300.47334    38.800388   -12337.887   -14232.083   -14232.083 
    5150    278.82071    36.004365   -12335.091   -14247.902   -14247.902 
    5160    278.79347    36.000847   -12335.088   -14247.679   -14247.679 
    5170    294.13653    37.982111   -12337.069   -14221.899   -14221.899 
    5180    321.99289    41.579227    -12340.67   -14249.281   -14249.281 
    5190    322.63067    41.661584   -12340.753   -14266.979   -14266.979 
    5200    289.83384      37.4265   -12336.512     -14225.1     -14225.1 
    5210    283.50207    36.608873   -12335.694   -14255.631   -14255.631 
    5220    303.04435    39.132385   -12338.224   -14348.485   -14348.485 
    5230    292.61701    37.785893   -12336.875   -14332.915   -14332.915 
    5240    278.36809    35.945917    -12335.03   -14271.591   -14271.591 
    5250    301.22309    38.897204   -12337.987   -14290.403   -14290.403 
    5260    314.32885    40.589563   -12339.681   -14278.952   -14278.952 
    5270    296.70066    38.313218     -12337.4   -14198.671   -14198.671 
    5280     296.7466    38.319151   -12337.405    -14186.39    -14186.39 
    5290    320.40076    41.373634   -12340.464    -14231.74    -14231.74 
    5300    318.97979    41.190142   -12340.281   -14209.191   -14209.191 
    5310    293.86551    37.947113   -12337.033   -14172.215   -14172.215 
    5320    291.05877    37.584676   -12336.671   -14227.227   -14227.227 
    5330    305.70875    39.476441   -12338.566    -14286.96    -14286.96 
    5340    307.27132    39.678217   -12338.768   -14287.266   -14287.266 
    5350    296.13924    38.240722   -12337.328   -14298.008   -14298.008 
    5360    290.19382    37.472985   -12336.561   -14331.306   -14331.306 
    5370    290.18165    37.471413    -12336.56   -14331.148   -14331.148 
    5380     289.6093    37.397505   -12336.485   -14300.013   -14300.013 
    5390    293.65756     37.92026   -12337.009   -14268.492   -14268.492 
    5400    297.46918    38.412459   -12337.501   -14225.343   -14225.343 
    5410    301.36899    38.916044   -12338.004   -14221.381   -14221.381 
    5420    306.66107    39.599415   -12338.688   -14254.765   -14254.765 
    5430    306.04925     39.52041   -12338.609   -14240.589   -14240.589 
    5440    300.11752     38.75444   -12337.841   -14206.652   -14206.652 
    5450    305.97049     39.51024   -12338.599   -14266.038   -14266.038 
    5460    303.48193     39.18889   -12338.279   -14312.302   -14312.302 
    5470    282.20522     36.44141   -12335.527   -14246.185   -14246.185 
    5480    290.34756    37.492837   -12336.579   -14237.889   -14237.889 
    5490    318.58705    41.139427   -12340.232   -14303.482   -14303.482 
    5500    301.87272    38.981092   -12338.071   -14255.686   -14255.686 
    5510    271.99912    35.123487   -12334.206   -14182.402   -14182.402 
    5520    299.04432    38.615858   -12337.705   -14268.605   -14268.605 
    5530    321.04595    41.456947    -12340.55   -14304.476   -14304.476 
    5540    299.06456    38.618471   -12337.703   -14200.237   -14200.237 
    5550    304.89188    39.370958   -12338.458   -14206.396   -14206.396 
    5560    321.30377    41.490241   -12340.584   -14275.432   -14275.432 
    5570    289.28498    37.355626   -12336.441   -14203.978   -14203.978 
    5580    284.81312     36.77817   -12335.861   -14199.178   -14199.178 
    5590    324.23834    41.869183   -12340.963   -14323.987   -14323.987 
    5600    306.22841    39.543546   -12338.634   -14289.281   -14289.281 
    5610    270.02718    34.868848    -12333.95     -14193.8     -14193.8 
    5620    301.74724    38.964888   -12338.055   -14274.399   -14274.399 
    5630    320.80328    41.425611   -12340.519   -14310.705   -14310.705 
    5640    289.89266    37.434096   -12336.518   -14218.907   -14218.907 
    5650    296.67759     38.31024   -12337.399   -14285.863   -14285.863 
    5660    300.50709    38.804747   -12337.899   -14393.283   -14393.283 
    5670    255.61925     33.00834   -12332.091   -14323.375   -14323.375 
    5680    268.21221     34.63448   -12333.718   -14309.741   -14309.741 
    5690    325.83119    42.074869   -12341.171   -14362.695   -14362.695 
    5700    313.32839    40.460372   -12339.548   -14208.465   -14208.465 
    5710    301.84214    38.977142   -12338.058   -14066.948   -14066.948 
    5720    351.57035    45.398591   -12344.494   -14163.923   -14163.923 
    5730     332.4313    42.927147   -12342.021   -14157.146   -14157.146 
    5740    261.46397    33.763073   -12332.842   -14049.222   -14049.222 
    5750    280.73448    36.251492   -12335.339   -14223.938   -14223.938 
    5760    313.87269    40.530658   -12339.627   -14460.898   -14460.898 
    5770    270.82318    34.971637   -12334.056   -14427.886   -14427.886 
    5780    265.57128    34.293454   -12333.376   -14391.903   -14391.903 
    5790    312.88572     40.40321   -12339.498   -14429.175   -14429.175 
    5800     301.4457    38.925949   -12338.015   -14248.263   -14248.263 
    5810    285.95465    36.925577   -12336.007   -14025.538   -14025.538 
    5820    336.82319    43.494277   -12342.586   -14063.757   -14063.757 
    5830     349.1541    45.086578   -12344.182   -14149.953   -14149.953 
    5840    295.49762    38.157869   -12337.241   -14158.978   -14158.978 
    5850    281.73822    36.381106   -12335.467   -14297.576   -14297.576 
    5860     294.7598    38.062594   -12337.155   -14454.897   -14454.897 
    5870    276.03203     35.64426    -12334.73   -14395.655   -14395.655 
    5880    277.08195    35.779838   -12334.864   -14280.425   -14280.425 
    5890    315.62986    40.757564   -12339.849   -14256.455   -14256.455 
    5900    324.33039     41.88107   -12340.972   -14184.438   -14184.438 
    5910    305.17439    39.407439   -12338.494   -14114.855   -14114.855 
    5920    302.95996    39.121487    -12338.21   -14219.931   -14219.931 
    5930    298.09869    38.493748   -12337.584   -14365.162   -14365.162 
    5940    275.43665    35.567378   -12334.654   -14369.821   -14369.821 
    5950    272.69141    35.212884   -12334.299   -14316.989   -14316.989 
    5960    295.08974    38.105199   -12337.194    -14272.18    -14272.18 
    5970    314.97254    40.672682   -12339.761   -14197.784   -14197.784 
    5980    329.54898    42.554951   -12341.645    -14161.75    -14161.75 
    5990    323.84954    41.818978    -12340.91   -14184.667   -14184.667 
    6000    292.09947    37.719063   -12336.806   -14197.193   -14197.193 
    6010    278.06882    35.907273   -12334.992    -14245.98    -14245.98 
    6020    299.09942    38.622973   -12337.714   -14380.025   -14380.025 
    6030    295.99921    38.222639   -12337.314   -14420.412   -14420.412 
    6040    262.41857    33.886342    -12332.97   -14299.277   -14299.277 
    6050    278.66354     35.98407   -12335.069   -14244.668   -14244.668 
    6060    329.30909    42.523974   -12341.618   -14275.245   -14275.245 
    6070    325.61626    42.047115   -12341.137   -14196.159   -14196.159 
    6080    301.58341    38.943733   -12338.028   -14127.035   -14127.035 
    6090    313.85948    40.528952   -12339.619   -14208.033   -14208.033 
    6100    307.07485    39.652847   -12338.744   -14239.452   -14239.452 
    6110    276.90527    35.757023    -12334.84    -14191.93    -14191.93 
    6120    297.55008    38.422905    -12337.51   -14270.469   -14270.469 
    6130    331.30932    42.782265   -12341.878   -14364.475   -14364.475 
    6140    297.89837    38.467881   -12337.555   -14262.029   -14262.029 
    6150    270.31748    34.906335   -12333.988   -14177.482   -14177.482 
    6160    303.34582    39.171314   -12338.262   -14254.061   -14254.061 
    6170     315.2851    40.713045   -12339.805   -14284.804   -14284.804 
    6180    287.92178    37.179594   -12336.265   -14245.841   -14245.841 
    6190    285.33459    36.845509   -12335.932   -14285.456   -14285.456 
    6200    299.91434    38.728204   -12337.818   -14344.555   -14344.555 
    6210    299.03354    38.614466   -12337.702   -14333.824   -14333.824 
    6220    301.41574    38.922081    -12338.01   -14307.167   -14307.167 
    6230    303.84963    39.236372   -12338.325   -14249.142   -14249.142 
    6240    299.49336    38.673843   -12337.761   -14167.056   -14167.056 
    6250    305.98245    39.511785     -12338.6   -14156.538   -14156.538 
    6260    308.31541    39.813041   -12338.903   -14190.738   -14190.738 
    6270    297.41575    38.405558   -12337.492   -14234.325   -14234.325 
    6280    301.48378    38.930867    -12338.02   -14355.199   -14355.199 
    6290    297.92566    38.471404   -12337.563   -14446.708   -14446.708 
    6300    263.34065    34.005412    -12333.09   -14361.713   -14361.713 
    6310    267.26835    34.512599   -12333.596   -14253.125   -14253.125 
    6320    320.82469    41.428376   -12340.521   -14234.477   -14234.477 
    6330    333.13457    43.017962   -12342.109    -14164.61    -14164.61 
    6340    311.47774    40.221396   -12339.306   -14080.851   -14080.851 
    6350    316.00628     40.80617   -12339.896   -14137.246   -14137.246 
    6360    309.63219    39.983078   -12339.073   -14235.676   -14235.676 
    6370    284.58366     36.74854   -12335.833   -14299.075   -14299.075 
    6380    290.63849    37.530405   -12336.619   -14373.299   -14373.299 
    6390    296.04351     38.22836   -12337.319   -14355.449   -14355.449 
    6400    280.71295    36.248711   -12335.333   -14238.176   -14238.176 
    6410    298.29687    38.519339   -12337.607   -14221.587   -14221.587 
    6420    322.20887    41.607117     -12340.7   -14278.154   -14278.154 
    6430     297.6495    38.435744   -12337.523   -14252.163   -14252.163 
    6440    280.90166     36.27308   -12335.357   -14240.125   -14240.125 
    6450    304.40174    39.307666   -12338.398   -14301.218   -14301.218 
    6460    310.22465    40.059583    -12339.15   -14299.776   -14299.776 
    6470    297.77587    38.452062   -12337.539   -14253.352   -14253.352 
    6480     298.8955    38.596641   -12337.686    -14261.68    -14261.68 
    6490    294.32765     38.00679   -12337.095   -14271.348   -14271.348 
    6500    288.73127    37.284124    -12336.37   -14256.286   -14256.286 
    6510    301.78498    38.969762   -12338.059   -14249.956   -14249.956 
    6520    307.54489    39.713544   -12338.802   -14201.755   -14201.755 
    6530    307.71837    39.735945   -12338.822   -14139.462   -14139.462 
    6540    324.49132    41.901851   -12340.992   -14157.405   -14157.405 
    6550    321.75573    41.548603   -12340.641   -14217.058   -14217.058 
    6560    283.09081    36.555767   -12335.641   -14272.918   -14272.918 
    6570    272.25327    35.156306   -12334.242   -14400.514   -14400.514 
    6580    288.34252    37.233925   -12336.325   -14509.337   -14509.337 
    6590    276.51548    35.706688   -12334.794    -14423.91    -14423.91 
    6600    273.96864    35.377813   -12334.462   -14263.868   -14263.868 
    6610    313.30176    40.456934   -12339.547   -14192.174   -14192.174 
    6620    336.07697    43.397917   -12342.491   -14156.708   -14156.708 
    6630     305.6236    39.465447   -12338.552   -14095.788   -14095.788 
    6640    289.70111     37.40936   -12336.493   -14125.275   -14125.275 
    6650    316.95145    40.928221   -12340.019     -14251.6     -14251.6 
    6660    322.77812    41.680624   -12340.773   -14310.926   -14310.926 
    6670    289.73832    37.414165   -12336.501   -14271.377   -14271.377 
    6680    274.43138    35.437567   -12334.521   -14235.108   -14235.108 
    6690     302.5792     39.07232   -12338.162   -14270.164   -14270.164 
    6700    314.81938    40.652905   -12339.745   -14309.388   -14309.388 
    6710    286.05923    36.939081   -12336.026     -14302.3     -14302.3 
    6720     273.5412    35.322618   -12334.407   -14305.541   -14305.541 
    6730    299.08241    38.620777    -12337.71   -14335.205   -14335.205 
    6740     311.9977    40.288539   -12339.379   -14293.212   -14293.212 
    6750    304.22442    39.284768   -12338.371   -14186.852   -14186.852 
    6760    313.33571    40.461318   -12339.549   -14160.372   -14160.372 
    6770    321.11536    41.465911   -12340.557   -14208.932   -14208.932 
    6780    299.16132    38.630966   -12337.718   -14213.855   -14213.855 
    6790    283.76372    36.642661   -12335.728   -14214.886   -14214.886 
    6800    294.79786    38.067509   -12337.157   -14283.151   -14283.151 
    6810    299.11391    38.624844   -12337.714   -14333.558   -14333.558 
    6820    293.88965     37.95023   -12337.037   -14312.385   -14312.385 
    6830    296.78723    38.324398   -12337.413   -14277.658   -14277.658 
    6840    298.87815    38.594399   -12337.683   -14262.572   -14262.572 
    6850    296.42887    38.278122   -12337.365   -14252.853   -14252.853 
    6860    302.41781     39.05148    -12338.14   -14265.793   -14265.793 
    6870    304.53117     39.32438   -12338.414   -14290.511   -14290.511 
    6880     292.2551    37.739159   -12336.827   -14281.755   -14281.755 
    6890    283.10419    36.557495   -12335.644   -14239.263   -14239.263 
    6900    294.72068    38.057542   -12337.145   -14225.431   -14225.431 
    6910    312.43451    40.344945   -12339.435   -14227.111   -14227.111 
    6920    313.96349    40.542384   -12339.631     -14185.6     -14185.6 
    6930    309.31231    39.941772   -12339.029   -14159.925   -14159.925 
    6940    314.69214    40.636474   -12339.725    -14210.88    -14210.88 
    6950     315.4937    40.739981   -12339.831   -14272.442   -14272.442 
    6960    293.21162    37.862676    -12336.95   -14285.626   -14285.626 
    6970    275.61543    35.590464   -12334.677   -14321.247   -14321.247 
    6980    279.42686    36.082638   -12335.171    -14365.29    -14365.29 
    6990    282.83494    36.522725   -12335.611   -14327.272   -14327.272 
    7000    288.30559    37.229156   -12336.315   -14266.785   -14266.785 
    7010    313.13432    40.435312   -12339.525   -14268.911   -14268.911 
    7020     324.9586    41.962192   -12341.054   -14241.563   -14241.563 
    7030    306.31793    39.555105   -12338.641   -14155.072   -14155.072 
    7040    303.52868    39.194927   -12338.282   -14161.131   -14161.131 
    7050    310.15577    40.050689   -12339.142   -14223.995   -14223.995 
    7060    288.57267    37.263644    -12336.35   -14219.189   -14219.189 
    7070    281.34511    36.330342   -12335.415   -14252.373   -14252.373 
    7080    306.46679    39.574328   -12338.666   -14344.426   -14344.426 
    7090    301.31798    38.909457   -12337.999   -14304.675   -14304.675 
    7100    286.52705    36.999492   -12336.083   -14203.283   -14203.283 
    7110     319.9094    41.310184     -12340.4   -14231.772   -14231.772 
    7120    339.24686    43.807248   -12342.902   -14268.462   -14268.462 
    7130    295.40586     38.14602   -12337.232   -14209.209   -14209.209 
    7140    269.24724    34.768134   -12333.852   -14240.899   -14240.899 
    7150    284.15847    36.693634   -12335.784   -14354.959   -14354.959 
    7160    281.90678    36.402872    -12335.49   -14355.888   -14355.888 
    7170    285.35686    36.848384   -12335.934   -14317.876   -14317.876 
    7180    311.71034    40.251431   -12339.342   -14317.221   -14317.221 
    7190    310.08025    40.040937   -12339.131   -14245.767   -14245.767 
    7200     290.9609    37.572038   -12336.656    -14143.58    -14143.58 
    7210    308.93013    39.892421    -12338.98   -14159.581   -14159.581 
    7220    329.62859    42.565232   -12341.657    -14215.16    -14215.16 
    7230    312.84852    40.398407   -12339.487   -14219.766   -14219.766 
    7240    289.21778    37.346948   -12336.434   -14254.737   -14254.737 
    7250    277.03431    35.773686   -12334.861   -14325.794   -14325.794 
    7260     280.6566    36.241435   -12335.328   -14371.798   -14371.798 
    7270    296.07454    38.232368   -12337.322   -14366.186   -14366.186 
    7280    296.99258    38.350915    -12337.44   -14293.561   -14293.561 
    7290    291.07188    37.586369   -12336.671   -14177.199   -14177.199 
    7300    319.73945    41.288238   -12340.377   -14114.402   -14114.402 
    7310    343.31236    44.332229   -12343.425   -14095.241   -14095.241 
    7320    318.67271     41.15049   -12340.238   -14106.314   -14106.314 
    7330    295.79991    38.196904   -12337.283   -14230.456   -14230.456 
    7340    289.49573     37.38284   -12336.472   -14384.634   -14384.634 
    7350    274.87531    35.494892   -12334.582   -14424.666   -14424.666 
    7360     276.2387    35.670947   -12334.757   -14385.609   -14385.609 
    7370    298.26974    38.515836   -12337.606     -14320.1     -14320.1 
    7380    302.02015    39.000129   -12338.088   -14217.359   -14217.359 
    7390    305.91457     39.50302   -12338.589   -14161.646   -14161.646 
    7400     323.1534    41.729085    -12340.82   -14181.552   -14181.552 
    7410    308.87183    39.884893   -12338.974   -14206.397   -14206.397 
    7420     282.5754    36.489211   -12335.574   -14280.119   -14280.119 
    7430    286.30731    36.971116    -12336.06   -14382.172   -14382.172 
    7440    285.01445    36.804168   -12335.893   -14345.246   -14345.246 
    7450    283.46459    36.604033   -12335.688   -14245.574   -14245.574 
    7460    320.28996    41.359325    -12340.45   -14273.501   -14273.501 
    7470    328.88317    42.468974   -12341.563   -14289.548   -14289.548 
    7480    284.79799    36.776216   -12335.859    -14204.22    -14204.22 
    7490    285.85142    36.912247   -12335.997   -14212.821   -14212.821 
    7500    317.26802      40.9691   -12340.063    -14255.35    -14255.35 
    7510    299.96377    38.734587   -12337.822   -14188.467   -14188.467 
    7520    288.35532    37.235578   -12336.319   -14194.111   -14194.111 
    7530    316.88049    40.919058   -12340.011   -14313.107   -14313.107 
    7540    307.77957    39.743848   -12338.835   -14308.565   -14308.565 
    7550    275.25001    35.543278   -12334.626   -14242.188   -14242.188 
    7560    291.06609    37.585621   -12336.674   -14301.025   -14301.025 
    7570     303.7744    39.226657   -12338.318     -14308.3     -14308.3 
    7580    288.46957     37.25033   -12336.335   -14201.088   -14201.088 
    7590    304.88183    39.369661   -12338.456    -14169.58    -14169.58 
    7600    338.61951    43.726236   -12342.819   -14205.746   -14205.746 
    7610    326.26473    42.130853   -12341.221   -14194.321   -14194.321 
    7620     290.9221    37.567029   -12336.653   -14224.741   -14224.741 
    7630     279.2105    36.054698   -12335.142   -14325.512   -14325.512 
    7640    282.53192    36.483597   -12335.571   -14357.855   -14357.855 
    7650    289.90335    37.435476   -12336.525   -14336.812   -14336.812 
    7660    287.73182    37.155064   -12336.244   -14314.979   -14314.979 
    7670    282.36172    36.461619   -12335.547    -14278.32    -14278.32 
    7680    301.13508    38.885839   -12337.973   -14244.665   -14244.665 
    7690    330.85404    42.723475   -12341.815   -14223.468   -14223.468 
    7700    329.13024    42.500879   -12341.591    -14170.79    -14170.79 
    7710    305.37991    39.433979   -12338.521   -14135.586   -14135.586 
    7720    293.95153    37.958221   -12337.046   -14202.214   -14202.214 
    7730    287.75255    37.157741   -12336.246   -14281.562   -14281.562 
    7740    285.90424    36.919068   -12336.006   -14294.969   -14294.969 
    7750    299.06495    38.618522   -12337.707   -14312.683   -14312.683 
    7760    306.97757    39.640286   -12338.731   -14365.233   -14365.233 
    7770    290.95723    37.571565    -12336.66   -14368.675   -14368.675 
    7780    270.03726    34.870151   -12333.955   -14287.503   -14287.503 
    7790    286.87514    37.044441   -12336.131   -14240.969   -14240.969 
    7800    322.11059    41.594425   -12340.687   -14252.898   -14252.898 
    7810    313.93723    40.538993   -12339.629   -14209.236   -14209.236 
    7820    290.09077    37.459678   -12336.544   -14161.924   -14161.924 
    7830    304.63512    39.337802   -12338.426   -14198.936   -14198.936 
    7840    321.00034    41.451058   -12340.543   -14221.563   -14221.563 
    7850    305.11795    39.400151   -12338.487    -14188.36    -14188.36 
    7860    301.17394    38.890858   -12337.978   -14223.775   -14223.775 
    7870    308.50805    39.837917   -12338.929   -14282.174   -14282.174 
    7880    289.65229    37.403057   -12336.489   -14242.216   -14242.216 
    7890     290.3947    37.498924   -12336.584   -14236.209   -14236.209 
    7900    319.90438    41.309536   -12340.403   -14314.155   -14314.155 
    7910    299.37136    38.658088   -12337.748   -14293.834   -14293.834 
    7920    259.86348    33.556401   -12332.637   -14226.014   -14226.014 
    7930    289.11166    37.333245   -12336.421   -14276.476   -14276.476 
    7940    321.72791     41.54501   -12340.639    -14288.37    -14288.37 
    7950    297.56039    38.424237    -12337.51   -14188.247   -14188.247 
    7960    296.25847    38.256118   -12337.341   -14211.339   -14211.339 
    7970    322.07951    41.590412   -12340.684   -14332.968   -14332.968 
    7980    302.63376    39.079366   -12338.168   -14331.485   -14331.485 
    7990    277.46638    35.829479   -12334.914   -14277.636   -14277.636 
    8000    290.52239    37.515414   -12336.605   -14271.992   -14271.992 
    8010    299.30794    38.649899   -12337.738   -14226.792   -14226.792 
    8020    304.45335     39.31433   -12338.401   -14176.784   -14176.784 
    8030    316.49237     40.86894    -12339.96   -14190.818   -14190.818 
    8040    304.01847    39.258174   -12338.346   -14225.347   -14225.347 
    8050     291.2175    37.605173   -12336.691   -14316.174   -14316.174 
    8060    299.40486    38.662415   -12337.753   -14431.556   -14431.556 
    8070    280.95515    36.279987   -12335.369   -14381.437   -14381.437 
    8080    261.85523    33.813598   -12332.895   -14222.823   -14222.823 
    8090    308.08342    39.783084   -12338.872    -14173.47    -14173.47 
    8100    348.73582    45.032565   -12344.128    -14161.05    -14161.05 
    8110    322.31716      41.6211   -12340.708   -14107.212   -14107.212 
    8120    301.38952    38.918696   -12338.004   -14158.181   -14158.181 
    8130    303.07465    39.136298   -12338.227   -14288.002   -14288.002 
    8140    282.36542    36.462097   -12335.549   -14339.826   -14339.826 
    8150    272.69215    35.212978   -12334.298   -14343.331   -14343.331 
    8160    295.56363    38.166393   -12337.256   -14329.426   -14329.426 
    8170    307.47712    39.704792   -12338.794   -14253.272   -14253.272 
    8180    311.02055    40.162358    -12339.25   -14196.477   -14196.477 
    8190    313.71454    40.510236   -12339.601   -14193.657   -14193.657 
    8200    295.02017    38.096216   -12337.183   -14189.755   -14189.755 
    8210    291.72481    37.670683   -12336.757   -14267.129   -14267.129 
    8220     305.5609    39.457349   -12338.549   -14376.233   -14376.233 
    8230    284.04055    36.678407   -12335.766   -14338.384   -14338.384 
    8240    271.39783    35.045841   -12334.128   -14277.983   -14277.983 
    8250    311.19886    40.185384   -12339.277   -14331.234   -14331.234 
    8260    319.52916    41.261083   -12340.353   -14286.388   -14286.388 
    8270    289.74201    37.414642   -12336.497   -14136.632   -14136.632 
    8280    307.70657    39.734422   -12338.823   -14144.797   -14144.797 
    8290    323.00862    41.710389   -12340.804   -14207.646   -14207.646 
    8300    287.31099    37.100723   -12336.185   -14165.961   -14165.961 
    8310    288.20946    37.216742   -12336.301   -14204.306   -14204.306 
    8320     323.3305    41.751953   -12340.846   -14326.134   -14326.134 
    8330    304.46377    39.315676   -12338.404   -14317.975   -14317.975 
    8340    279.61304    36.106679    -12335.19   -14294.882   -14294.882 
    8350    296.26027    38.256351   -12337.347   -14366.609   -14366.609 
    8360    290.93906    37.569218   -12336.659   -14351.661   -14351.661 
    8370    274.28686    35.418904   -12334.503   -14267.888   -14267.888 
    8380    297.95814    38.475598   -12337.565    -14276.54    -14276.54 
    8390    311.76061    40.257923   -12339.349   -14261.745   -14261.745 
    8400    301.56281    38.941073   -12338.026   -14172.288   -14172.288 
    8410    315.38041    40.725352   -12339.814   -14157.661   -14157.661 
    8420    326.04539     42.10253   -12341.194   -14187.654   -14187.654 
    8430    307.41223    39.696414   -12338.784   -14185.632   -14185.632 
    8440    296.41737    38.276637   -12337.364   -14237.152   -14237.152 
    8450    291.61534    37.656547   -12336.746   -14331.487   -14331.487 
    8460    275.63361    35.592813   -12334.679   -14349.859   -14349.859 
    8470     281.1537    36.305627   -12335.392   -14319.721   -14319.721 
    8480    302.64802    39.081207   -12338.171   -14280.058   -14280.058 
    8490    310.35495    40.076409   -12339.164   -14219.409   -14219.409 
    8500    317.84964    41.044205   -12340.133   -14186.535   -14186.535 
    8510    320.78338    41.423042   -12340.514   -14195.936   -14195.936 
    8520    297.71719    38.444484   -12337.532   -14198.181   -14198.181 
    8530    278.83688    36.006453   -12335.092   -14221.774   -14221.774 
    8540    289.18729     37.34301   -12336.431   -14311.255   -14311.255 
    8550    299.78817    38.711912   -12337.802    -14390.85    -14390.85 
    8560    292.79937    37.809441   -12336.897   -14365.624   -14365.624 
    8570    288.26187     37.22351    -12336.31   -14276.012   -14276.012 
    8580    300.80368    38.843045   -12337.931   -14226.542   -14226.542 
    8590    318.94086    41.185115   -12340.275   -14216.625   -14216.625 
    8600    314.85218     40.65714   -12339.747    -14166.88    -14166.88 
    8610    294.58756    38.040352   -12337.126   -14131.589   -14131.589 
    8620    300.97556    38.865241   -12337.953    -14227.65    -14227.65 
    8630    312.67055    40.375424   -12339.467   -14331.615   -14331.615 
    8640    288.35141    37.235073   -12336.322   -14311.298   -14311.298 
    8650    272.12784    35.140108   -12334.225    -14302.23    -14302.23 
    8660    290.68488    37.536396   -12336.626   -14342.469   -14342.469 
    8670     296.1923    38.247574   -12337.336   -14276.686   -14276.686 
    8680    297.31641    38.392731   -12337.478   -14183.172   -14183.172 
    8690    323.88419    41.823452   -12340.914   -14206.356   -14206.356 
    8700    328.71429    42.447167   -12341.539   -14227.286   -14227.286 
    8710    297.04947    38.358261   -12337.444   -14184.591   -14184.591 
    8720     284.7989    36.776335   -12335.862   -14196.041   -14196.041 
    8730    297.15582    38.371994   -12337.461    -14243.34    -14243.34 
    8740    303.05833    39.134191   -12338.222   -14260.646   -14260.646 
    8750     306.8948    39.629597   -12338.719   -14305.878   -14305.878 
    8760    297.53104    38.420447    -12337.51   -14337.983   -14337.983 
    8770    275.87095    35.623461   -12334.708   -14291.777   -14291.777 
    8780    289.66135    37.404226   -12336.491   -14271.378   -14271.378 
    8790    320.53648    41.391159   -12340.484   -14289.272   -14289.272 
    8800    307.97839    39.769522   -12338.859   -14232.143   -14232.143 
    8810    286.06499    36.939825   -12336.024   -14176.377   -14176.377 
    8820    298.49414    38.544812   -12337.634   -14214.571   -14214.571 
    8830    308.31049    39.812406   -12338.903   -14242.546   -14242.546 
    8840     300.4046    38.791512   -12337.878   -14231.891   -14231.891 
    8850    303.36575    39.173887   -12338.262   -14282.101   -14282.101 
    8860    304.70261    39.346518   -12338.436   -14326.982   -14326.982 
    8870    294.76228    38.062914    -12337.15   -14280.006   -14280.006 
    8880    291.57837    37.651773   -12336.739   -14205.774   -14205.774 
    8890    298.44313    38.538226   -12337.626   -14181.078   -14181.078 
    8900    306.79585    39.616819   -12338.706   -14205.158   -14205.158 
    8910    307.20072      39.6691   -12338.759   -14242.847   -14242.847 
    8920    295.03976    38.098745   -12337.186    -14264.17    -14264.17 
    8930    292.66848     37.79254   -12336.879   -14281.912   -14281.912 
    8940    307.66385    39.728905   -12338.819   -14320.236   -14320.236 
    8950    300.07005    38.748311   -12337.838   -14328.792   -14328.792 
    8960    273.78522    35.354128   -12334.439   -14294.639   -14294.639 
    8970    280.30772    36.196384   -12335.282   -14272.278   -14272.278 
    8980    310.33942    40.074404   -12339.165   -14254.434   -14254.434 
    8990    318.20913    41.090627   -12340.179   -14207.592   -14207.592 
    9000    316.14792     40.82446   -12339.913   -14200.964   -14200.964 
    9010    308.56215    39.844904   -12338.935   -14232.139   -14232.139 
    9020     282.3467     36.45968   -12335.546   -14222.949   -14222.949 
    9030    278.77054    35.997887   -12335.082   -14227.586   -14227.586 
    9040    310.27778    40.066445   -12339.158   -14283.384   -14283.384 
    9050    312.03187    40.292951   -12339.384    -14277.29    -14277.29 
    9060    289.18894    37.343224   -12336.428    -14218.25    -14218.25 
    9070    302.15675    39.017768   -12338.105   -14218.052   -14218.052 
    9080     323.1078    41.723196   -12340.815   -14226.251   -14226.251 
    9090    309.01003    39.902738   -12338.991   -14192.863   -14192.863 
    9100    290.91318    37.565876   -12336.651   -14197.279   -14197.279 
    9110    300.37911    38.788221   -12337.877   -14277.942   -14277.942 
    9120    301.52308    38.935942   -12338.026   -14322.474   -14322.474 
    9130    284.93581    36.794013   -12335.881   -14310.051   -14310.051 
    9140    280.93069    36.276828   -12335.364   -14305.596   -14305.596 
    9150    293.17639    37.858127   -12336.947   -14301.857   -14301.857 
    9160    300.59196    38.815706   -12337.904   -14259.288   -14259.288 
    9170    303.66075    39.211981   -12338.299   -14208.171   -14208.171 
    9180    314.95574    40.670514    -12339.76   -14201.786   -14201.786 
    9190    315.60712    40.754627   -12339.845   -14225.514   -14225.514 
    9200    296.40866    38.275512   -12337.364   -14274.421   -14274.421 
    9210    278.59761    35.975556   -12335.062   -14339.399   -14339.399 
    9220    279.63977    36.110131   -12335.198   -14374.085   -14374.085 
    9230    290.89076    37.562981   -12336.651   -14331.512   -14331.512 
    9240    302.99224    39.125656   -12338.214   -14228.582   -14228.582 
    9250    316.34729    40.850205   -12339.938   -14121.823   -14121.823 
    9260    328.74619    42.451287   -12341.541   -14082.825   -14082.825 
    9270    326.56144    42.169167   -12341.259   -14135.207   -14135.207 
    9280    305.31667    39.425812   -12338.515   -14248.872   -14248.872 
    9290    275.97695    35.637147   -12334.724   -14370.184   -14370.184 
    9300    258.31058    33.355873   -12332.442   -14442.639   -14442.639 
    9310    266.66502     34.43469   -12333.521   -14423.981   -14423.981 
    9320    293.86804    37.947441   -12337.036   -14312.302   -14312.302 
    9330    319.65831     41.27776   -12340.367   -14169.861   -14169.861 
    9340    331.69914    42.832603   -12341.921   -14069.943   -14069.943 
    9350    334.64927    43.213556   -12342.303   -14061.852   -14061.852 
    9360    326.16897    42.118488   -12341.208   -14132.478   -14132.478 
    9370    302.24885    39.029661   -12338.118   -14236.389   -14236.389 
    9380     279.4698    36.088183   -12335.175   -14339.838   -14339.838 
    9390    274.40668    35.434377   -12334.522   -14412.206   -14412.206 
    9400    272.73628    35.218677   -12334.307   -14405.766   -14405.766 
    9410     272.4535    35.182161   -12334.268   -14336.922   -14336.922 
    9420    295.73203    38.188138   -12337.276   -14289.118   -14289.118 
    9430    322.50789    41.645729   -12340.737   -14260.358   -14260.358 
    9440    315.46779    40.736635   -12339.825   -14189.056   -14189.056 
    9450    302.16831    39.019262   -12338.105   -14137.004   -14137.004 
    9460    314.04978    40.553526   -12339.643   -14193.209   -14193.209 
    9470     311.9206    40.278583   -12339.369   -14260.273   -14260.273 
    9480     287.1776    37.083498   -12336.169   -14256.497   -14256.497 
    9490    288.08358    37.200487   -12336.287   -14268.712   -14268.712 
    9500    301.61972    38.948422   -12338.039    -14299.93    -14299.93 
    9510    293.75433    37.932756    -12337.02   -14279.344   -14279.344 
    9520    294.59164    38.040879   -12337.127    -14263.64    -14263.64 
    9530    312.54962    40.359808    -12339.45   -14300.765   -14300.765 
    9540    304.77155     39.35542   -12338.446   -14311.551   -14311.551 
    9550    275.54686    35.581609   -12334.666   -14264.137   -14264.137 
    9560    279.82305    36.133798    -12335.22   -14256.676   -14256.676 
    9570    309.20041    39.927322   -12339.018    -14275.89    -14275.89 
    9580    317.21438    40.962173   -12340.052   -14226.463   -14226.463 
    9590      305.387    39.434894   -12338.522   -14152.412   -14152.412 
    9600    303.58006    39.201562   -12338.289   -14184.426   -14184.426 
    9610    310.10079     40.04359   -12339.134   -14295.519   -14295.519 
    9620    294.16162     37.98535   -12337.074   -14310.739   -14310.739 
    9630    279.75394    36.124874   -12335.209   -14254.059   -14254.059 
    9640    301.67597    38.955685   -12338.044   -14247.881   -14247.881 
    9650    319.01049    41.194107   -12340.286   -14224.779   -14224.779 
    9660    304.74956     39.35258   -12338.439    -14143.48    -14143.48 
    9670    306.68807    39.602902   -12338.689   -14144.858   -14144.858 
    9680    325.03865    41.972529   -12341.065   -14233.726   -14233.726 
    9690    298.14933    38.500287    -12337.59   -14262.247   -14262.247 
    9700    260.10238     33.58725    -12332.67   -14293.083   -14293.083 
    9710    275.88661    35.625482   -12334.713   -14401.756   -14401.756 
    9720    298.39211    38.531638   -12337.622   -14418.815   -14418.815 
    9730    298.82038     38.58694   -12337.674    -14327.68    -14327.68 
    9740    308.73641    39.867406   -12338.956   -14281.911   -14281.911 
    9750    312.82837    40.395804   -12339.487   -14265.189   -14265.189 
    9760    286.21259    36.958885   -12336.045    -14200.41    -14200.41 
    9770    282.01162     36.41641   -12335.501   -14189.222   -14189.222 
    9780     312.2874    40.325948   -12339.418   -14234.719   -14234.719 
    9790    313.04358    40.423594   -12339.513   -14204.775   -14204.775 
    9800    302.71902    39.090375   -12338.176   -14203.551   -14203.551 
    9810    309.07102    39.910614   -12339.001   -14281.339   -14281.339 
    9820    297.46227    38.411567     -12337.5   -14279.738   -14279.738 
    9830    285.93856    36.923499   -12336.008   -14237.271   -14237.271 
    9840    305.85405    39.495203   -12338.586   -14283.231   -14283.231 
    9850     303.7904    39.228723    -12338.32   -14292.077   -14292.077 
    9860    276.59427    35.716863     -12334.8   -14224.151   -14224.151 
    9870    294.71161     38.05637   -12337.143   -14237.794   -14237.794 
    9880    328.11357    42.369595   -12341.463   -14269.189   -14269.189 
    9890     308.8359    39.880254   -12338.968   -14180.232   -14180.232 
    9900    291.95398    37.700275   -12336.784   -14151.912   -14151.912 
    9910    311.75607    40.257338   -12339.349   -14271.308   -14271.308 
    9920    303.22676     39.15594   -12338.246    -14302.73    -14302.73 
    9930    279.06845    36.036355   -12335.121     -14241.7     -14241.7 
    9940    292.39822    37.757641   -12336.845    -14263.98    -14263.98 
    9950    308.83157    39.879694   -12338.972    -14305.68    -14305.68 
    9960    292.36578    37.753452   -12336.839   -14243.156   -14243.156 
    9970    298.21433     38.50868   -12337.595   -14217.883   -14217.883 
    9980    318.98448    41.190748   -12340.283   -14251.199   -14251.199 
    9990    299.32712    38.652376    -12337.74   -14218.717   -14218.717 
   10000    281.08883     36.29725   -12335.382   -14230.835   -14230.835 
Loop time of 10.3352 on 1 procs for 10000 steps with 1000 atoms

Performance: 41.799 ns/day, 0.574 hours/ns, 967.564 timesteps/s
99.7% CPU use with 1 MPI tasks x no OpenMP threads

MPI task timing breakdown:
Section |  min time  |  avg time  |  max time  |%varavg| %total
---------------------------------------------------------------
Pair    | 8.2647     | 8.2647     | 8.2647     |   0.0 | 79.97
Neigh   | 1.3351     | 1.3351     | 1.3351     |   0.0 | 12.92
Comm    | 0.085305   | 0.085305   | 0.085305   |   0.0 |  0.83
Output  | 0.57178    | 0.57178    | 0.57178    |   0.0 |  5.53
Modify  | 0.058398   | 0.058398   | 0.058398   |   0.0 |  0.57
Other   |            | 0.02002    |            |       |  0.19

Nlocal:    1000 ave 1000 max 1000 min
Histogram: 1 0 0 0 0 0 0 0 0 0
Nghost:    2045 ave 2045 max 2045 min
Histogram: 1 0 0 0 0 0 0 0 0 0
Neighs:    0 ave 0 max 0 min
Histogram: 1 0 0 0 0 0 0 0 0 0
FullNghs:  33538 ave 33538 max 33538 min
Histogram: 1 0 0 0 0 0 0 0 0 0

Total # of neighbors = 33538
Ave neighs/atom = 33.538
Neighbor list builds = 1000
Dangerous builds not checked

Total wall time: 0:00:10
