
# Define the lattice
variable	lattice_constant equal 6.2040
lattice		diamond ${lattice_constant}
lattice		diamond 6.204
Lattice spacing in x,y,z = 6.204 6.204 6.204

# Define region
# multiples of lattice spacing
region 		simbox block 0 5 0 5 0 5

# Create Atoms
create_box 	1 simbox
Created orthogonal box = (0 0 0) to (31.02 31.02 31.02)
  1 by 1 by 1 MPI processor grid
create_atoms 	1 box
Created 1000 atoms
  Time spent = 0.000954151 secs
mass		1 18.015

velocity	all create 600.0 97287

# Define Interatomic Potential
pair_style	sw
pair_coeff	* * mW.sw mW
Reading potential file mW.sw with DATE: 2019-02-27

neighbor 	2.0 bin
neigh_modify	delay 10 check no

# Pressure computations
compute		total_press all pressure thermo_temp
compute		peratom all stress/atom NULL
compute		p all reduce sum c_peratom[1] c_peratom[2] c_peratom[3]
variable	press equal -(c_p[1]+c_p[2]+c_p[3])/(3*vol)

# Density computations
variable	total_mass equal mass(all)
variable	v equal vol
print 		${total_mass}
print 		18014.9999999997
18014.9999999997
print		$v
print		29848.697208
29848.697208

variable 	density equal v_total_mass/(v_v*18.015)
print 		${density}
print 		0.0335022997161821
0.0335022997161821


# Run equilibration
thermo_style	custom step temp ke pe c_total_press v_press
thermo		10
dump		1 all atom 10 ${simname}.dump
dump		1 all atom 10 mW_liquid_6.2040.dump

fix 		1 all nve
#temp 300.0 300.0 100.0 iso 0.0 0.0 1000.0
timestep	0.0005
run		10000
Neighbor list info ...
  update every 1 steps, delay 10 steps, check no
  max neighbors/atom: 2000, page size: 100000
  master list distance cutoff = 6.3065
  ghost atom cutoff = 6.3065
  binsize = 3.15325, bins = 10 10 10
  1 neighbor lists, perpetual/occasional/extra = 1 0 0
  (1) pair sw, perpetual
      attributes: full, newton on
      pair build: full/bin/atomonly
      stencil: full/bin/3d
      bin: standard
Per MPI rank memory allocation (min/avg/max) = 4.438 | 4.438 | 4.438 Mbytes
Step Temp KinEng PotEng c_total_press v_press 
       0          600    77.478531   -12377.981    777.17052    777.17052 
      10      357.229    46.129297   -12346.573    1152.0533    1152.0533 
      20    173.40821    22.392355   -12322.808    1045.7937    1045.7937 
      30    324.62636    41.919289   -12342.395    110.99347    110.99347 
      40    270.98195    34.992139   -12335.452    7.2929785    7.2929785 
      50    140.09696    18.090845    -12318.51    392.54451    392.54451 
      60    298.36675    38.528363   -12338.991    179.42918    179.42918 
      70    362.37883    46.794299   -12347.265    308.02163    308.02163 
      80    248.60468    32.102542    -12332.53    926.69889    926.69889 
      90    340.25311    43.937185   -12344.391    844.45484    844.45484 
     100    408.97497      52.8113   -12353.287    567.22793    567.22793 
     110    253.36536    32.717293   -12333.152    763.67558    763.67558 
     120     246.5165    31.832894   -12332.272     608.6138     608.6138 
     130    350.96375     45.32026   -12345.792    259.68051    259.68051 
     140    276.39824    35.691549   -12336.137    511.59237    511.59237 
     150    248.00018    32.024483   -12332.462    667.65984    667.65984 
     160    347.10544    44.822032   -12345.289    385.34333    385.34333 
     170    304.51472    39.322255   -12339.776    491.80714    491.80714 
     180    240.09133    31.003206   -12331.437    770.54487    770.54487 
     190    334.31304    43.170139    -12343.63    578.29579    578.29579 
     200    355.57711    45.915986   -12346.379    467.48692    467.48692 
     210    262.34387    33.876696   -12334.316    682.66269    682.66269 
     220    277.86308    35.880705   -12336.329    622.32491    622.32491 
     230    330.00439    42.613759   -12343.075    433.01067    433.01067 
     240    288.34622    37.234402   -12337.682    547.39251    547.39251 
     250    277.45061    35.827442   -12336.273    608.59204    608.59204 
     260    317.05835    40.942025     -12341.4    482.18229    482.18229 
     270    296.74367    38.318773   -12338.769    560.22587    560.22587 
     280    283.17228    36.566287   -12337.011    694.23779    694.23779 
     290    333.29631    43.038848   -12343.495    587.27095    587.27095 
     300    334.02673    43.133167    -12343.59    540.49819    540.49819 
     310    278.10276    35.911655   -12336.357    675.30809    675.30809 
     320    280.73027    36.250948   -12336.699    661.39184    661.39184 
     330    317.75634    41.032157   -12341.489     517.5473     517.5473 
     340    298.92613    38.600596   -12339.053    502.55736    502.55736 
     350    270.57679    34.939821   -12335.386    491.08263    491.08263 
     360    287.61147    37.139523   -12337.592    371.48306    371.48306 
     370     298.2776    38.516851   -12338.971    378.38927    378.38927 
     380    286.57478    37.005655   -12337.454    536.07461    536.07461 
     390    298.17522    38.503629   -12338.954    620.66294    620.66294 
     400    322.91971    41.698908   -12342.153    667.93308    667.93308 
     410    326.52986     42.16509   -12342.617    780.78869    780.78869 
     420    324.71775     41.93109   -12342.383    794.73219    794.73219 
     430     316.2854    40.842214   -12341.295    658.90828    658.90828 
     440    290.77966    37.548635   -12337.999    525.48461    525.48461 
     450    272.37971    35.172633   -12335.623     430.6447     430.6447 
     460    268.47343    34.668211   -12335.119    370.32679    370.32679 
     470    271.76864    35.093725   -12335.543     400.1989     400.1989 
     480    295.99996    38.222736   -12338.674    466.33344    466.33344 
     490    315.34292     40.72051   -12341.175    535.76541    535.76541 
     500    301.90475    38.985228   -12339.435    664.12217    664.12217 
     510    306.39334    39.564844   -12340.014    752.34035    752.34035 
     520    331.70035     42.83276   -12343.288     705.4369     705.4369 
     530    315.08161    40.686767    -12341.14    624.34751    624.34751 
     540    278.51718     35.96517   -12336.413     575.6063     575.6063 
     550    280.41976    36.210851   -12336.661    519.96226    519.96226 
     560    300.08974    38.750853   -12339.204    483.22226    483.22226 
     570    305.70142    39.475494   -12339.927    501.72784    501.72784 
     580    304.27113      39.2908   -12339.742    535.06265    535.06265 
     590    299.09723     38.62269   -12339.074    553.39219    553.39219 
     600    294.59238    38.040975   -12338.491    582.38118    582.38118 
     610    301.63639    38.950574   -12339.402    637.38152    637.38152 
     620    309.39126    39.951967   -12340.404    674.47397    674.47397 
     630    311.24322    40.191112   -12340.642    636.31926    636.31926 
     640    311.19437    40.184804   -12340.638    564.08142    564.08142 
     650    294.53715    38.033842   -12338.485    553.18178    553.18178 
     660    279.85496    36.137919   -12336.586    547.45044    547.45044 
     670    298.97661    38.607114    -12339.06    469.77232    469.77232 
     680    306.16824    39.535776   -12339.991    455.06056    455.06056 
     690    281.39071    36.336231   -12336.785    539.11173    539.11173 
     700    282.87689    36.528143   -12336.977    577.70126    577.70126 
     710    309.27939    39.937521   -12340.392    575.71427    575.71427 
     720    305.30833    39.424735   -12339.876    612.90779    612.90779 
     730    296.05024    38.229229   -12338.678    599.44871    599.44871 
     740    309.58913    39.977519   -12340.431    530.83078    530.83078 
     750    304.27905    39.291823   -12339.744    548.14955    548.14955 
     760     287.3981    37.111971    -12337.56    600.00749    600.00749 
     770    299.27303    38.645391   -12339.097      569.525      569.525 
     780    308.27122    39.807335   -12340.261    547.99756    547.99756 
     790     297.2129    38.379365   -12338.829    570.64062    570.64062 
     800    304.20316    39.282023   -12339.734    550.03564    550.03564 
     810    305.82281    39.491171   -12339.945    582.59183    582.59183 
     820    284.32097    36.714618   -12337.162    699.69678    699.69678 
     830    302.44047    39.054406   -12339.504    694.66538    694.66538 
     840    337.75437    43.614521   -12344.073    590.05948    590.05948 
     850    306.53215    39.582768   -12340.034    575.35171    575.35171 
     860     270.4569    34.924338    -12335.37    529.12197    529.12197 
     870    289.78719    37.420476   -12337.874    396.66378    396.66378 
     880    295.65101    38.177676   -12338.631    390.53323    390.53323 
     890    280.29656    36.194943   -12336.643     488.1174     488.1174 
     900     296.8138    38.327828    -12338.78     531.5907     531.5907 
     910    303.09727    39.139219   -12339.593    625.88334    625.88334 
     920    291.44305    37.634299    -12338.08    742.15594    742.15594 
     930    327.30466     42.26514   -12342.718    664.53005    664.53005 
     940    342.42576    44.217742   -12344.677    577.66335    577.66335 
     950    285.87827    36.915713   -12337.362    642.32848    642.32848 
     960    274.55155    35.453085   -12335.899    604.78409    604.78409 
     970    315.42322     40.73088   -12341.188    480.18779    480.18779 
     980    301.16822    38.890118   -12339.342    518.85772    518.85772 
     990    277.85661    35.879869   -12336.326    551.66242    551.66242 
    1000    296.47523    38.284109   -12338.739    458.10475    458.10475 
    1010    290.09621     37.46038   -12337.912    473.64024    473.64024 
    1020    280.02432    36.159788   -12336.606    575.17533    575.17533 
    1030     317.2268    40.963777   -12341.418    590.45478    590.45478 
    1040    326.49614    42.160736   -12342.616    645.03776    645.03776 
    1050    302.63244    39.079195   -12339.527    725.22238    725.22238 
    1060    309.89927    40.017567   -12340.471    664.14509    664.14509 
    1070    303.79362    39.229138   -12339.682    594.94341    594.94341 
    1080    283.80931    36.648547   -12337.095    560.58172    560.58172 
    1090    306.71276    39.606091   -12340.059    424.97525    424.97525 
    1100    307.29628     39.68144   -12340.139    335.29777    335.29777 
    1110    248.41931    32.078606   -12332.523     457.2635     457.2635 
    1120    255.99638    33.057039   -12333.501    558.62932    558.62932 
    1130    331.76668    42.841325     -12343.3    565.84239    565.84239 
    1140    338.43753    43.702738   -12344.158    670.88766    670.88766 
    1150    306.19224    39.538874   -12339.986    736.54405    736.54405 
    1160    308.25393    39.805103   -12340.258    629.94726    629.94726 
    1170    300.59251    38.815776   -12339.268    543.02764    543.02764 
    1180    281.37124    36.333718   -12336.782    537.57903    537.57903 
    1190    289.75141    37.415856   -12337.868    502.18915    502.18915 
    1200     293.8316    37.942735   -12338.396    496.23144    496.23144 
    1210    286.98144    37.058167   -12337.506    578.41007    578.41007 
    1220    311.76067    40.257931   -12340.708    659.03438    659.03438 
    1230    343.47756    44.353561   -12344.809    693.27596    693.27596 
    1240    328.71731    42.447557   -12342.901    699.40832    699.40832 
    1250    289.29231    37.356572   -12337.805    646.04082    646.04082 
    1260    276.23738    35.670777    -12336.12     519.3979     519.3979 
    1270    289.42744    37.374022   -12337.826    405.88464    405.88464 
    1280    294.82269    38.070714   -12338.524    387.59402    387.59402 
    1290      278.126    35.914657   -12336.365    446.70329    446.70329 
    1300    274.81547    35.487165   -12335.935    490.77753    490.77753 
    1310    302.98229    39.124372   -12339.577    521.85786    521.85786 
    1320    321.97068    41.576358   -12342.031    615.10756    615.10756 
    1330     309.2259    39.930614   -12340.381    721.13515    721.13515 
    1340    301.71365    38.960551    -12339.41    695.88096    695.88096 
    1350     309.5136    39.967765   -12340.422    568.39195    568.39195 
    1360    294.35107    38.009814   -12338.461    526.14275    526.14275 
    1370    280.02729    36.160172   -12336.608    557.65424    557.65424 
    1380    303.10878    39.140706   -12339.592    562.47933    562.47933 
    1390    328.09695     42.36745   -12342.823    568.33215    568.33215 
    1400    313.03667    40.422702   -12340.875    626.93511    626.93511 
    1410    290.82737    37.554796   -12338.003    659.81874    659.81874 
    1420    297.89688    38.467688    -12338.92    578.72509    578.72509 
    1430    296.47092    38.283553   -12338.738     464.1374     464.1374 
    1440    266.46706    34.409127   -12334.858    426.68202    426.68202 
    1450    258.84466    33.424839   -12333.871    460.14623    460.14623 
    1460    302.17244    39.019795   -12339.471    512.18472    512.18472 
    1470    345.11275    44.564714   -12345.021    594.44461    594.44461 
    1480    335.14635    43.277744   -12343.731    723.25746    723.25746 
    1490    302.69039    39.086678   -12339.535    776.24166    776.24166 
    1500    299.39904    38.661663   -12339.112    644.43147    644.43147 
    1510    303.39405    39.177542   -12339.631    465.28637    465.28637 
    1520    281.73956    36.381278   -12336.832     413.8018     413.8018 
    1530    264.80299    34.194244   -12334.641    467.38294    467.38294 
    1540    288.58998    37.265879   -12337.717    527.42486    527.42486 
    1550    314.98821    40.674706   -12341.128    617.88512    617.88512 
    1560    322.39762     41.63149   -12342.083    695.44079    695.44079 
    1570    326.81815    42.202317   -12342.655    666.51151    666.51151 
    1580    311.62877    40.240898   -12340.695    578.22454    578.22454 
    1590    272.96502    35.248214   -12335.697    507.96214    507.96214 
    1600    258.66112    33.401139   -12333.848    449.66647    449.66647 
    1610    286.26683     36.96589   -12337.418    415.86235    415.86235 
    1620    308.81532    39.877595   -12340.331    467.04455    467.04455 
    1630    310.69043    40.119731   -12340.571    572.54739    572.54739 
    1640    306.54006    39.583789   -12340.034    684.57028    684.57028 
    1650    310.56539    40.103583   -12340.554    746.20727    746.20727 
    1660    325.60354    42.045473   -12342.499    707.59076    707.59076 
    1670    321.50905    41.516748   -12341.971    626.46728    626.46728 
    1680    291.76646    37.676061   -12338.126    542.13659    542.13659 
    1690    273.68265    35.340883   -12335.791    428.27004    428.27004 
    1700     269.6464    34.819679   -12335.271    352.57492    352.57492 
    1710    266.20222    34.374928   -12334.824    372.85911    372.85911 
    1720    284.26145    36.706933   -12337.157    425.49525    425.49525 
    1730    310.29599    40.068795   -12340.524    513.74152    513.74152 
    1740    302.53053    39.066035   -12339.516    695.50477    695.50477 
    1750    307.37381    39.691452   -12340.138    814.18183    814.18183 
    1760    356.44828    46.028482   -12346.485    745.61004    745.61004 
    1770    353.45152    45.641507   -12346.099    687.13297    687.13297 
    1780    286.00764     36.93242   -12337.379    698.07314    698.07314 
    1790    266.31331    34.389274   -12334.836    599.47402    599.47402 
    1800    298.36949    38.528716   -12338.983    444.69462    444.69462 
    1810    303.90323    39.243293   -12339.697    400.44028    400.44028 
    1820    286.86799    37.043518   -12337.494    418.07816    418.07816 
    1830    279.44842    36.085422   -12336.536    444.10731    444.10731 
    1840    283.05375    36.550981   -12337.001    514.11724    514.11724 
    1850    300.83093    38.846564   -12339.298    593.32611    593.32611 
    1860    315.39649    40.727428   -12341.181    650.72613    650.72613 
    1870    313.38503    40.467687   -12340.918    669.85481    669.85481 
    1880    314.05739    40.554508   -12341.007    610.89998    610.89998 
    1890     305.9676    39.509866   -12339.963    544.46103    544.46103 
    1900    281.98497    36.412969   -12336.861    526.04995    526.04995 
    1910    284.76196    36.771564   -12337.222      462.232      462.232 
    1920    297.15827    38.372311   -12338.827    415.58249    415.58249 
    1930    277.48429    35.831792   -12336.282    508.68304    508.68304 
    1940    275.35603    35.556968   -12336.004    601.60853    601.60853 
    1950    316.69883      40.8956    -12341.35    588.75724    588.75724 
    1960    326.57741     42.17123   -12342.625    639.82852    639.82852 
    1970    308.45461    39.831017   -12340.279    729.18054    729.18054 
    1980    320.68272    41.410043   -12341.862    669.61248    669.61248 
    1990    320.61677    41.401527   -12341.857    569.38586    569.38586 
    2000    279.28969    36.064925   -12336.513    566.51944    566.51944 
    2010    271.47214    35.055438   -12335.503    518.96186    518.96186 
    2020    300.43828    38.795861   -12339.251    419.01831    419.01831 
    2030    298.42044    38.535296   -12338.988    448.52122    448.52122 
    2040    285.91797     36.92084   -12337.369    568.62569    568.62569 
    2050    305.59866    39.462226   -12339.913    638.30723    638.30723 
    2060    329.37026    42.531873   -12342.987    656.38121    656.38121 
    2070    319.46614    41.252945   -12341.705    663.24133    663.24133 
    2080    301.05933    38.876057   -12339.326    601.75336    601.75336 
    2090    290.94194     37.56959   -12338.021    504.03818    504.03818 
    2100    280.84304     36.26551   -12336.716    450.47103    450.47103 
    2110    280.09072    36.168362   -12336.619     430.4746     430.4746 
    2120    289.31543    37.359557   -12337.811    446.55004    446.55004 
    2130    293.95666    37.958883    -12338.41    519.39727    519.39727 
    2140    298.54226    38.551026   -12339.001    591.80091    591.80091 
    2150    316.61699    40.885032   -12341.337    606.76885    606.76885 
    2160    321.31631    41.491859   -12341.946    636.21916    636.21916 
    2170    300.40986    38.792191   -12339.241    688.52489    688.52489 
    2180    300.59662    38.816308   -12339.266    648.14755    648.14755 
    2190    317.57835    41.009173   -12341.464    566.24708    566.24708 
    2200    302.19455     39.02265   -12339.475    549.62347    549.62347 
    2210    279.50534    36.092772   -12336.541    508.92397    508.92397 
    2220    284.67736    36.760639   -12337.213    415.33144    415.33144 
    2230    280.09151    36.168464    -12336.62    428.59667    428.59667 
    2240    275.43772    35.567516   -12336.014    514.80554    514.80554 
    2250    311.11066    40.173995   -12340.627    542.59788    542.59788 
    2260    328.55407    42.426478   -12342.882    616.93338    616.93338 
    2270    302.94642    39.119739   -12339.567    734.97132    734.97132 
    2280    309.12597    39.917711   -12340.368     696.4199     696.4199 
    2290    324.04885    41.844714   -12342.302    587.17498    587.17498 
    2300    284.73838    36.768519   -12337.217    576.64224    576.64224 
    2310    272.25644    35.156715   -12335.602    518.51884    518.51884 
    2320    313.89208    40.533161    -12340.99    409.01758    409.01758 
    2330    306.30385    39.553287   -12340.007    466.96749    466.96749 
    2340      275.604    35.588988   -12336.035    565.31614    565.31614 
    2350    297.45887    38.411127   -12338.864    540.56121    540.56121 
    2360    311.10799     40.17365   -12340.628    559.55303    559.55303 
    2370    295.10105    38.106659   -12338.554    633.60937    633.60937 
    2380    309.61984    39.981484   -12340.434    609.40257    609.40257 
    2390    315.35502    40.722072   -12341.176    600.22172    600.22172 
    2400    296.29637    38.261012   -12338.708     638.3884     638.3884 
    2410    316.62008     40.88543   -12341.339    566.32042    566.32042 
    2420    312.04645    40.294834   -12340.752    535.92649    535.92649 
    2430    260.85872    33.684917   -12334.128    587.77434    587.77434 
    2440    281.83731    36.393901   -12336.843    477.43052    477.43052 
    2450    321.51161    41.517079   -12341.978    399.41225    399.41225 
    2460    277.37574    35.817774   -12336.264    580.68975    580.68975 
    2470     278.1761    35.921126   -12336.365    647.92105    647.92105 
    2480    344.48158    44.483211   -12344.945    534.56496    534.56496 
    2490    312.25449    40.321698   -12340.774    609.16943    609.16943 
    2500    267.07127     34.48715   -12334.928    635.03765    635.03765 
    2510    314.13267    40.564229   -12341.023    428.12134    428.12134 
    2520    297.14847    38.371045   -12338.827    435.16911    435.16911 
    2530    239.98143    30.989014   -12331.427     585.5363     585.5363 
    2540    302.35511    39.043383   -12339.497    506.27132    506.27132 
    2550    349.71407    45.158888   -12345.621    536.03548    536.03548 
    2560    300.74059    38.834899   -12339.279    774.56594    774.56594 
    2570    315.26469    40.710408   -12341.161     742.7219     742.7219 
    2580     337.8564    43.627696   -12344.089    617.36264    617.36264 
    2590    274.10763    35.395761    -12335.84     688.1585     688.1585 
    2600    279.55417    36.099078   -12336.544    592.58629    592.58629 
    2610    340.19347    43.929484   -12344.393    391.65764    391.65764 
    2620    291.08032     37.58746   -12338.038    491.70152    491.70152 
    2630    249.55943     32.22583   -12332.667    567.36918    567.36918 
    2640    305.84202     39.49365   -12339.952    410.39308    410.39308 
    2650    302.49331    39.061229   -12339.516    450.89409    450.89409 
    2660    266.37875    34.397724   -12334.841    595.61784    595.61784 
    2670    305.30679    39.424536   -12339.879     557.1166     557.1166 
    2680    314.77985    40.647801   -12341.103    627.67176    627.67176 
    2690    291.45998    37.636485   -12338.079    786.31249    786.31249 
    2700    342.09017    44.174407   -12344.629    673.09841    673.09841 
    2710    355.49567     45.90547   -12346.367    555.17345    555.17345 
    2720     275.7191    35.603851   -12336.049    619.33193    619.33193 
    2730     255.1516    32.947951   -12333.394    508.30442    508.30442 
    2740    288.86288    37.301119   -12337.758    316.93244    316.93244 
    2750      273.563    35.325432   -12335.775    413.65792    413.65792 
    2760    279.01107    36.028946   -12336.475    570.39023    570.39023 
    2770    331.67815    42.829893   -12343.287    580.28699    580.28699 
    2780     332.8996    42.987621   -12343.442    652.52689    652.52689 
    2790    304.28763    39.292931   -12339.741    733.73615    733.73615 
    2800    302.29539    39.035671   -12339.488    666.96253    666.96253 
    2810    295.11294    38.108196    -12338.56    594.98756    594.98756 
    2820    289.26892    37.353551   -12337.803    562.54891    562.54891 
    2830     301.8493    38.978067   -12339.432    485.56048    485.56048 
    2840    291.88704    37.691631   -12338.142     476.5234     476.5234 
    2850    288.65032    37.273671   -12337.721    511.40603    511.40603 
    2860    317.97762    41.060731   -12341.517    465.43274    465.43274 
    2870    300.57139     38.81305   -12339.268    496.03176    496.03176 
    2880    256.50875    33.123202   -12333.566    644.55266    644.55266 
    2890    297.58875    38.427898   -12338.877    653.91034    653.91034 
    2900    357.54343    46.169899   -12346.631    574.44738    574.44738 
    2910     319.7068    41.284022   -12341.736    633.33757    633.33757 
    2920    269.54597    34.806709   -12335.251    655.24461    655.24461 
    2930    286.34861    36.976449   -12337.429    497.75412    497.75412 
    2940    293.84613    37.944611   -12338.399    405.70934    405.70934 
    2950    279.53909     36.09713   -12336.544    471.87602    471.87602 
    2960     304.4862    39.318573   -12339.771    529.00319    529.00319 
    2970    320.94563    41.443994   -12341.899    606.27649    606.27649 
    2980    300.92148    38.858257   -12339.306    727.00462    727.00462 
    2990     311.7954    40.262416   -12340.712    729.79786    729.79786 
    3000    332.84644    42.980756   -12343.438    637.54218    637.54218 
    3010    298.90384    38.597718   -12339.049     596.7092     596.7092 
    3020    269.26906    34.770951   -12335.217    535.91242    535.91242 
    3030    288.50132    37.254431   -12337.707    426.69571    426.69571 
    3040    297.38132    38.401113   -12338.854    408.48293    408.48293 
    3050    292.14988    37.725572   -12338.175    460.45215    460.45215 
    3060    299.46591    38.670298   -12339.123    507.13187    507.13187 
    3070     292.4529    37.764702   -12338.215    591.29744    591.29744 
    3080    293.22104    37.863893   -12338.312    644.68346    644.68346 
    3090    321.90941    41.568447   -12342.024    610.92753    610.92753 
    3100    310.28661    40.067585   -12340.521     619.2666     619.2666 
    3110    279.46759    36.087897   -12336.533    608.51819    608.51819 
    3120    303.37137    39.174613   -12339.627    468.37974    468.37974 
    3130    314.14434    40.565736   -12341.022    418.75547    418.75547 
    3140    276.41418    35.693607    -12336.14    533.85256    533.85256 
    3150    287.14845    37.079734   -12337.529    576.34953    576.34953 
    3160    317.73791    41.029778   -12341.487    610.26586    610.26586 
    3170    296.46364    38.282612   -12338.731    743.31166    743.31166 
    3180    305.09398    39.397056   -12339.844     733.4721     733.4721 
    3190    348.51275     45.00376   -12345.463    581.50989    581.50989 
    3200    316.04218    40.810807   -12341.265     552.3646     552.3646 
    3210     255.9688    33.053477   -12333.497    548.62047    548.62047 
    3220    270.88383    34.979468   -12335.431     421.8404     421.8404 
    3230    294.38412    38.014082   -12338.469    407.83142    407.83142 
    3240    289.16488    37.340117   -12337.789     535.3166     535.3166 
    3250    305.13171    39.401928   -12339.854    593.59747    593.59747 
    3260    315.64448    40.759451   -12341.213    633.21886    633.21886 
    3270    304.77266    39.355564   -12339.804    689.88884    689.88884 
    3280      317.039    40.939527   -12341.391    643.88762    643.88762 
    3290    325.40672    42.020057   -12342.476    570.72776    570.72776 
    3300    288.30609     37.22922   -12337.679    578.29075    578.29075 
    3310    268.33376    34.650175   -12335.098    533.22218    533.22218 
    3320    288.95003    37.312373   -12337.766    451.32137    451.32137 
    3330    297.26091    38.385565   -12338.837    500.97914    500.97914 
    3340    303.41928      39.1808   -12339.631    574.64665    574.64665 
    3350    317.08327    40.945244     -12341.4     564.1941     564.1941 
    3360    298.01455    38.482883   -12338.934    604.54161    604.54161 
    3370    281.70021    36.376197   -12336.823    654.41655    654.41655 
    3380     314.0904    40.558771   -12341.012    572.44265    572.44265 
    3390    326.88506    42.210957   -12342.669    513.41866    513.41866 
    3400    278.97867    36.024762   -12336.472    598.80232    598.80232 
    3410    268.65576    34.691757   -12335.137     590.3858     590.3858 
    3420     314.0513    40.553722    -12341.01    477.09044    477.09044 
    3430    314.85777    40.657862   -12341.112    525.45224    525.45224 
    3440    286.30694    36.971069   -12337.418    646.52741    646.52741 
    3450      300.374     38.78756   -12339.239    619.63737    619.63737 
    3460    313.40126    40.469783   -12340.925    566.06339    566.06339 
    3470    293.49977    37.899885   -12338.348    586.89803    586.89803 
    3480    298.30873     38.52087   -12338.972    535.26735    535.26735 
    3490    306.26463    39.548223   -12340.004    470.95476    470.95476 
    3500    274.25724     35.41508   -12335.864    537.44282    537.44282 
    3510    270.32109    34.906802   -12335.353    606.62198    606.62198 
    3520    317.23443    40.964763    -12341.42    613.42409    613.42409 
    3530    331.64792    42.825989    -12343.28    690.93391    690.93391 
    3540    319.31163    41.232994   -12341.682    739.84657    739.84657 
    3550    323.69168    41.798593   -12342.253    637.43347    637.43347 
    3560    303.68971    39.215721   -12339.669    540.07065    540.07065 
    3570    271.67359    35.081451   -12335.529    487.91377    487.91377 
    3580    278.25133     35.93084   -12336.382    417.02757    417.02757 
    3590     286.8529    37.041569   -12337.495    459.02953    459.02953 
    3600    282.90645     36.53196    -12336.98      628.719      628.719 
    3610    311.27146    40.194759   -12340.646    694.45879    694.45879 
    3620    335.67971    43.346617   -12343.803    635.46107    635.46107 
    3630     312.1478    40.307921   -12340.758    594.65202    594.65202 
    3640    293.45112    37.893602   -12338.343    540.57529    540.57529 
    3650    292.03772     37.71109   -12338.164    473.65564    473.65564 
    3660    277.92436    35.888618   -12336.338     479.0899     479.0899 
    3670    280.04752    36.162784   -12336.612    510.49336    510.49336 
    3680    300.61236     38.81834   -12339.272    531.65599    531.65599 
    3690     300.6236    38.819791   -12339.272    590.12582    590.12582 
    3700    295.66912    38.180015   -12338.629    637.74714    637.74714 
    3710    311.07619    40.169544   -12340.622    590.91317    590.91317 
    3720    313.20101    40.443924   -12340.898    545.03097    545.03097 
    3730    291.32736     37.61936   -12338.069    615.80982    615.80982 
    3740     292.4564    37.765154   -12338.213    701.74392    701.74392 
    3750    325.21589    41.995415    -12342.45    665.47404    665.47404 
    3760    328.15342    42.374742   -12342.831    593.13549    593.13549 
    3770    282.94168    36.536509   -12336.985    573.52028    573.52028 
    3780    263.97711    34.087598   -12334.533    501.22663    501.22663 
    3790    301.97883    38.994793   -12339.449    390.84297    390.84297 
    3800    312.57695    40.363338   -12340.819    475.85825    475.85825 
    3810    284.58496    36.748707   -12337.195    676.67076    676.67076 
    3820     304.2292    39.285386   -12339.735    697.88605    697.88605 
    3830    337.61385    43.596375   -12344.054    649.55944    649.55944 
    3840    314.15632    40.567284   -12341.018    699.34764    699.34764 
    3850    295.55389    38.165135   -12338.614     640.9315     640.9315 
    3860    301.43178    38.924152   -12339.379    464.38917    464.38917 
    3870    275.09318    35.523025   -12335.973    413.57573    413.57573 
    3880    261.16434    33.724383   -12334.171    416.00925    416.00925 
    3890    288.62277    37.270114   -12337.724    407.70252    407.70252 
    3900    291.28732    37.614189   -12338.066    537.37845    537.37845 
    3910     289.9009     37.43516   -12337.881    667.84668    667.84668 
    3920    333.40658    43.053086   -12343.509    616.95794    616.95794 
    3930    334.76811    43.228902   -12343.685    646.19589    646.19589 
    3940    292.93576    37.827054   -12338.272    774.75567    774.75567 
    3950    312.15355    40.308665    -12340.76    687.95809    687.95809 
    3960    331.12953    42.759049   -12343.218    539.08449    539.08449 
    3970    276.83866    35.748421   -12336.197    552.47003    552.47003 
    3980     255.2385    32.959173   -12333.404     493.0474     493.0474 
    3990    300.40591    38.791681   -12339.249    332.72015    332.72015 
    4000    297.24464    38.383463   -12338.837    404.54232    404.54232 
    4010    269.73101    34.830603   -12335.275    579.10107    579.10107 
    4020    304.48654    39.318617   -12339.771    579.54383    579.54383 
    4030    331.33153    42.785133   -12343.242    616.35248    616.35248 
    4040    308.09971    39.785189   -12340.233    759.20688    759.20688 
    4050    313.45993    40.477358   -12340.928     717.4823     717.4823 
    4060    325.00436      41.9681   -12342.425    579.23116    579.23116 
    4070    283.79486    36.646682   -12337.096    581.03192    581.03192 
    4080    266.06137    34.356741   -12334.803    546.78942    546.78942 
    4090    303.24979    39.158914   -12339.614    423.27076    423.27076 
    4100    305.01898    39.387371   -12339.842    477.14551    477.14551 
    4110    276.40644    35.692608   -12336.138    640.42506    640.42506 
    4120    308.73127    39.866742   -12340.318    619.98365    619.98365 
    4130    343.16397    44.313067   -12344.772    573.61355    573.61355 
    4140    302.94266    39.119253   -12339.569    669.43203    669.43203 
    4150    273.74174    35.348513   -12335.794    674.04902    674.04902 
    4160    301.68138    38.956384    -12339.41    550.30535    550.30535 
    4170    308.21661    39.800284   -12340.254    522.68304    522.68304 
    4180    288.35685    37.235776   -12337.685    519.38487    519.38487 
    4190    289.17284    37.341144   -12337.793    436.40827    436.40827 
    4200    285.02075    36.804982   -12337.256    456.41644    456.41644 
    4210    285.16977    36.824225   -12337.272    561.11509    561.11509 
    4220    320.63626    41.404045   -12341.858    589.40007    589.40007 
    4230    331.77903    42.842919   -12343.299    660.33549    660.33549 
    4240    301.62323    38.948874   -12339.397     777.1175     777.1175 
    4250    302.75641    39.095204   -12339.546    703.93368    703.93368 
    4260    311.19939    40.185452   -12340.642    544.48456    544.48456 
    4270    273.93727    35.373761   -12335.823    494.88259    494.88259 
    4280    262.64006    33.914943   -12334.362     391.6374     391.6374 
    4290    294.25812    37.997812   -12338.455    264.22187    264.22187 
    4300    278.58121    35.973438   -12336.425    439.58674    439.58674 
    4310    267.89834     34.59395   -12335.036    725.99729    725.99729 
    4320    346.04174    44.684677    -12345.14    739.23666    739.23666 
    4330    379.82369    49.046969   -12349.509    716.78499    716.78499 
    4340    305.19505    39.410107   -12339.856    819.55694    819.55694 
    4350    278.21438    35.926069    -12336.37    723.53607    723.53607 
    4360    322.23459    41.610437   -12342.069    471.56318    471.56318 
    4370    297.07451    38.361495   -12338.815    463.82139    463.82139 
    4380    251.46899    32.472413   -12332.915    549.90024    549.90024 
    4390    291.12876    37.593715   -12338.047    460.59811    460.59811 
    4400    314.33482    40.590333   -12341.048     466.0718     466.0718 
    4410    282.75608    36.512543   -12336.958      600.413      600.413 
    4420     302.4747    39.058825   -12339.509    555.84613    555.84613 
    4430    328.82982    42.462085   -12342.922    488.96374    488.96374 
    4440    277.40332    35.821337   -12336.268    628.68396    628.68396 
    4450    268.00983    34.608347   -12335.052    658.87619    658.87619 
    4460    329.05435    42.491079    -12342.95    533.75061    533.75061 
    4470    323.04303    41.714832   -12342.169    588.43312    588.43312 
    4480    286.67837    37.019032   -12337.464    659.23558    659.23558 
    4490    303.95569    39.250067   -12339.705    536.13568    536.13568 
    4500    293.87505    37.948345   -12338.402    509.05434    509.05434 
    4510    270.38789    34.915428   -12335.359     573.7435     573.7435 
    4520    315.75328    40.773501   -12341.228    480.06616    480.06616 
    4530    328.01821    42.357281   -12342.816    454.04104    454.04104 
    4540    268.45635    34.666006    -12335.11    614.09152    614.09152 
    4550    277.28853    35.806513   -12336.253    636.60351    636.60351 
    4560    329.31054    42.524162   -12342.984      581.918      581.918 
    4570    310.78746    40.132259   -12340.582    694.03308    694.03308 
    4580    303.98637    39.254028   -12339.701      697.272      697.272 
    4590    334.45906    43.188994   -12343.648    510.89935    510.89935 
    4600    295.58126    38.168669   -12338.621    471.22306    471.22306 
    4610    251.14442    32.430501   -12332.873    497.24844    497.24844 
    4620    285.02108    36.805024   -12337.259    402.93734    402.93734 
    4630    296.02917    38.226508   -12338.681    454.10955    454.10955 
    4640    276.45924    35.699426   -12336.145    662.36296    662.36296 
    4650     314.9396    40.668429    -12341.12    726.57733    726.57733 
    4660    352.44158    45.511094   -12345.969    700.52212    700.52212 
    4670    322.52758    41.648272   -12342.099    719.90294    719.90294 
    4680    291.40204    37.629003   -12338.077     640.3476     640.3476 
    4690    289.29979    37.357538    -12337.81    465.26498    465.26498 
    4700    280.80238     36.26026   -12336.711    389.26118    389.26118 
    4710    276.23768    35.670815   -12336.121     402.8257     402.8257 
    4720    282.40875    36.467692   -12336.919    447.26527    447.26527 
    4730    295.52876    38.161891   -12338.612     548.1895     548.1895 
    4740    317.23785    40.965204   -12341.418    688.44276    688.44276 
    4750    323.33198    41.752145   -12342.204    791.34022    791.34022 
    4760    320.91366    41.439864    -12341.89     755.6635     755.6635 
    4770    324.95749    41.962048   -12342.416    615.62536    615.62536 
    4780    301.98331    38.995373   -12339.449     532.1525     532.1525 
    4790    263.86045    34.072534   -12334.519     513.4786     513.4786 
    4800    276.32152    35.681642   -12336.131    433.78322    433.78322 
    4810    305.96228     39.50918   -12339.966    366.72653    366.72653 
    4820    285.25121    36.834741   -12337.285    471.14236    471.14236 
    4830    273.80213    35.356312   -12335.803    619.46603    619.46603 
    4840    312.21762    40.316938    -12340.77    648.84227    648.84227 
    4850    332.28367    42.908085   -12343.364    621.80252    621.80252 
    4860    309.66927    39.987867   -12340.439    609.80493    609.80493 
    4870    289.54295    37.388937   -12337.838    592.46077    592.46077 
    4880    291.39365     37.62792   -12338.079    557.58241    557.58241 
    4890    302.60675    39.075877   -12339.528    529.21495    529.21495 
    4900    303.65094    39.210714   -12339.664    545.77362    545.77362 
    4910    288.27056    37.224632   -12337.674    607.34973    607.34973 
    4920    292.18504    37.730112    -12338.18    619.42658    619.42658 
    4930    313.48813       40.481   -12340.935    593.01397    593.01397 
    4940    314.95315    40.670179   -12341.122    602.53578    602.53578 
    4950     307.7595    39.741257   -12340.192    589.22308    589.22308 
    4960    301.83835    38.976653    -12339.43    534.61816    534.61816 
    4970    282.45277    36.473376   -12336.924    522.39482    522.39482 
    4980    277.43347    35.825229   -12336.274    534.94638    534.94638 
    4990    299.95096    38.732933   -12339.187    546.00411    546.00411 
    5000    303.87925    39.240196   -12339.692    612.19492    612.19492 
    5010    304.36552    39.302989   -12339.752    636.15131    636.15131 
    5020    322.71149     41.67202   -12342.126     585.8996     585.8996 
    5030    313.70261    40.508696   -12340.962    605.66917    605.66917 
    5040    287.82476    37.167066   -12337.615     641.1895     641.1895 
    5050    297.12733    38.368315    -12338.82    536.06456    536.06456 
    5060     299.5812    38.685186    -12339.14    437.15442    437.15442 
    5070     268.3142     34.64765   -12335.095    488.74543    488.74543 
    5080      276.588    35.716053   -12336.164    538.04797    538.04797 
    5090    319.13951    41.210768   -12341.666    546.43413    546.43413 
    5100    324.24764    41.870384   -12342.324    603.28139    603.28139 
    5110    307.37004    39.690965   -12340.142    622.56554    622.56554 
    5120    294.36312    38.011371   -12338.464    592.61789    592.61789 
    5130    279.12784    36.044025   -12336.493     610.5966     610.5966 
    5140    293.36875    37.882966   -12338.333    589.68655    589.68655 
    5150    322.47887    41.641982   -12342.098    523.17759    523.17759 
    5160    307.76151    39.741516   -12340.194    567.96261    567.96261 
    5170    287.24179    37.091786   -12337.539    639.21863    639.21863 
    5180    309.76109    39.999723   -12340.453    589.35001    589.35001 
    5190    314.19599    40.572406   -12341.028     554.2097     554.2097 
    5200    281.43572    36.342044   -12336.789    582.21172    582.21172 
    5210    285.17889    36.825402   -12337.275    510.25358    510.25358 
    5220    306.42025    39.568318   -12340.024    440.23985    440.23985 
    5230    291.01138    37.578557   -12338.029    516.90581    516.90581 
    5240     282.6515    36.499039   -12336.947    571.47342    571.47342 
    5250     305.9777    39.511172   -12339.964    537.88399    537.88399 
    5260     314.9538    40.670262   -12341.124    573.08812    573.08812 
    5270     303.6486    39.210412   -12339.661    646.42221    646.42221 
    5280    299.44653    38.667796   -12339.119    638.25744    638.25744 
    5290    300.08176    38.749823   -12339.201    615.87007    615.87007 
    5300    305.06371    39.393147   -12339.844    625.12807    625.12807 
    5310    315.46287    40.735999   -12341.189    605.19278    605.19278 
    5320    309.24009    39.932446   -12340.384    592.56415    592.56415 
    5330    296.99704    38.351491   -12338.801     591.6788     591.6788 
    5340    299.46918    38.670721   -12339.123    532.37481    532.37481 
    5350    293.32752    37.877642    -12338.33    486.66261    486.66261 
    5360    275.64147    35.593827   -12336.042    527.75098    527.75098 
    5370    285.28446    36.839035   -12337.289    531.41602    531.41602 
    5380     305.8888    39.499692   -12339.954    487.69725    487.69725 
    5390     295.8136    38.198672    -12338.65    553.88163    553.88163 
    5400    288.02904    37.193445   -12337.641     658.1212     658.1212 
    5410    315.89292    40.791532   -12341.244    626.72909    626.72909 
    5420    328.46477    42.414946   -12342.871    572.13374    572.13374 
    5430    294.50294    38.029425   -12338.478    630.76565    630.76565 
    5440     285.5628    36.874978   -12337.323    602.31787    602.31787 
    5450    310.90518     40.14746   -12340.603    468.48756    468.48756 
    5460    300.03738    38.744092   -12339.197    482.25246    482.25246 
    5470    271.53798     35.06394    -12335.51    591.17557    591.17557 
    5480    291.09869    37.589831   -12338.041    563.72743    563.72743 
    5490    313.05349    40.424874   -12340.881    533.77887    533.77887 
    5500    295.06465     38.10196   -12338.551    624.59085    624.59085 
    5510    302.41325    39.050891     -12339.5    612.81154    612.81154 
    5520    326.24642    42.128489   -12342.586    521.24324    521.24324 
    5530    295.21912    38.121907   -12338.572    586.64502    586.64502 
    5540     275.2863    35.547964   -12335.993    644.04355    644.04355 
    5550    318.04871    41.069911   -12341.526    547.69645    547.69645 
    5560     321.8156    41.556333   -12342.012     567.9689     567.9689 
    5570    284.94682    36.795435   -12337.241    669.59451    669.59451 
    5580    298.38717    38.530999   -12338.982    595.44714    595.44714 
    5590    313.28201    40.454383   -12340.911    533.01602    533.01602 
    5600    287.53657    37.129852   -12337.576    620.23737    620.23737 
    5610    306.86289    39.625476   -12340.076    571.43874    571.43874 
    5620    329.69403    42.573682   -12343.034     467.0765     467.0765 
    5630    273.42601    35.307743   -12335.755     561.7408     561.7408 
    5640    254.36682    32.846613    -12333.29    576.41395    576.41395 
    5650    309.04286    39.906977   -12340.366    422.28238    422.28238 
    5660    298.52271    38.548502   -12339.002    472.75323    472.75323 
    5670    267.18762    34.502174   -12334.944    599.36286    599.36286 
    5680    324.72995    41.932666   -12342.388    482.67174    482.67174 
    5690    340.35762    43.950681   -12344.411    480.08277    480.08277 
    5700    271.88535    35.108796   -12335.552    720.15928    720.15928 
    5710    284.01328    36.674887   -12337.122    738.84718    738.84718 
    5720     340.9179     44.02303   -12344.484     609.0842     609.0842 
    5730    310.63804    40.112964   -12340.563     686.8213     686.8213 
    5740    288.28421    37.226395   -12337.671    682.23826    682.23826 
    5750    321.05443    41.458042   -12341.917    442.43559    442.43559 
    5760    288.96002    37.313663   -12337.767    381.32931    381.32931 
    5770    239.30029    30.901059   -12331.343    482.02173    482.02173 
    5780    282.20348    36.441185   -12336.893    453.54051    453.54051 
    5790    322.35776    41.626343   -12342.084    499.89565    499.89565 
    5800    303.56126    39.199134   -12339.646    703.06838    703.06838 
    5810    319.73562    41.287744   -12341.738    730.50902    730.50902 
    5820    344.86288    44.532448   -12344.991    624.29682    624.29682 
    5830    302.50271    39.062442   -12339.513    632.43417    632.43417 
    5840    270.42424    34.920122   -12335.366    591.52708    591.52708 
    5850    291.53157     37.64573     -12338.1    434.30463    434.30463 
    5860    291.49561    37.641086   -12338.094    449.59753    449.59753 
    5870    281.51569    36.352371   -12336.799    600.39079    600.39079 
    5880    311.71218    40.251669   -12340.704     621.0186     621.0186 
    5890     330.1168    42.628274   -12343.084    592.39181    592.39181 
    5900    306.11507     39.52891   -12339.979    617.36544    617.36544 
    5910    289.90563    37.435771   -12337.886    565.87624    565.87624 
    5920    283.39224     36.59469   -12337.047    494.79217    494.79217 
    5930    273.44154    35.309747   -12335.758    533.03559    533.03559 
    5940    295.81059    38.198284   -12338.649    549.59965    549.59965 
    5950    323.86601    41.821104   -12342.277    527.61114    527.61114 
    5960      306.963    39.638403   -12340.089    609.99972    609.99972 
    5970    294.27134    37.999519   -12338.446    678.47957    678.47957 
    5980    323.39604    41.760417   -12342.215    585.44589    585.44589 
    5990    318.70793    41.155036   -12341.611    531.30878    531.30878 
    6000    267.02566     34.48126   -12334.927    594.67337    594.67337 
    6010    266.14241    34.367205   -12334.815    545.88067    545.88067 
    6020    305.65929    39.470055   -12339.927    444.98475    444.98475 
    6030    299.05471    38.617199   -12339.069    518.99391    518.99391 
    6040    288.35684    37.235773   -12337.682    586.91388    586.91388 
    6050    318.56136     41.13611   -12341.591    515.20069    515.20069 
    6060    311.88778    40.274345   -12340.729     572.0634     572.0634 
    6070    278.41842    35.952417   -12336.397    713.56088    713.56088 
    6080     306.2906    39.551576   -12340.002    646.63635    646.63635 
    6090    342.52635    44.230731    -12344.69    521.59332    521.59332 
    6100    303.49282    39.190296   -12339.641    584.03542    584.03542 
    6110    271.92407    35.113796   -12335.559    616.88493    616.88493 
    6120    296.27359    38.258071   -12338.712    539.77818    539.77818 
    6130    302.93464    39.118218   -12339.571    566.70561    566.70561 
    6140    293.08802    37.846716   -12338.295     630.6191     630.6191 
    6150    305.72484    39.478519   -12339.931    600.43307    600.43307 
    6160    310.44597    40.088163   -12340.541     577.7447     577.7447 
    6170    302.14096    39.015729   -12339.465    558.01267    558.01267 
    6180    305.99332    39.513188   -12339.967    465.43037    465.43037 
    6190    290.58406    37.523377   -12337.975    442.63205    442.63205 
    6200    270.87487    34.978312   -12335.426    493.21906    493.21906 
    6210    288.78937    37.291627   -12337.744    500.04221    500.04221 
    6220     298.7544     38.57842   -12339.032    587.97636    587.97636 
    6230    296.46199      38.2824   -12338.729    733.64827    733.64827 
    6240    334.34348    43.174069   -12343.628     681.9672     681.9672 
    6250    344.94589    44.543168   -12345.002    558.16917    558.16917 
    6260    281.73187    36.380286   -12336.828    574.51005    574.51005 
    6270     256.4316    33.113239   -12333.558    539.45706    539.45706 
    6280    294.46115    38.024029    -12338.48    397.15545    397.15545 
    6290    290.51079    37.513915   -12337.966    424.67192    424.67192 
    6300    276.15004    35.659498   -12336.105    561.45596    561.45596 
    6310    314.87384    40.659937   -12341.114    605.44169    605.44169 
    6320    328.11303    42.369526   -12342.824    675.17586    675.17586 
    6330    310.15848    40.051039   -12340.498    730.90239    730.90239 
    6340    323.23374    41.739459   -12342.193    613.05344    613.05344 
    6350    312.12628    40.305142   -12340.761    519.78395    519.78395 
    6360    266.80692    34.453014   -12334.898    572.83001    572.83001 
    6370    282.33432     36.45808   -12336.908     547.6173     547.6173 
    6380    315.99206    40.804335   -12341.262    486.67294    486.67294 
    6390    294.02731    37.968007   -12338.418    544.85317    544.85317 
    6400    285.03777     36.80718   -12337.255    565.45025    565.45025 
    6410    311.39049    40.210129   -12340.665    504.58409    504.58409 
    6420    303.52536    39.194498   -12339.647    548.04946    548.04946 
    6430    287.64756    37.144184   -12337.592    626.35844    626.35844 
    6440    305.24819    39.416969    -12339.87    598.50307    598.50307 
    6450    307.92315    39.762389   -12340.215    581.58145    581.58145 
    6460    297.12945    38.368589   -12338.818    593.31198    593.31198 
    6470    302.58106     39.07256   -12339.526    532.14351    532.14351 
    6480    293.65492     37.91992   -12338.372    470.64471    470.64471 
    6490    278.10432    35.911857    -12336.36    480.50167    480.50167 
    6500    293.69075    37.924546   -12338.376    538.93003    538.93003 
    6510    309.89881    40.017507   -12340.471    662.23538    662.23538 
    6520    311.38886    40.209919   -12340.659    776.79516    776.79516 
    6530    332.47737    42.933097   -12343.386     728.7131     728.7131 
    6540     334.8809    43.243467     -12343.7    599.04181    599.04181 
    6550    286.20803    36.958297   -12337.407    531.35671    531.35671 
    6560    258.93053    33.435929   -12333.882    454.17354    454.17354 
    6570    282.34245     36.45913   -12336.912    352.22979    352.22979 
    6580    292.28441    37.742944   -12338.198    365.54147    365.54147 
    6590    270.26736    34.899864   -12335.348    516.95049    516.95049 
    6600    283.58991    36.620216   -12337.068    626.48605    626.48605 
    6610    334.47917    43.191591   -12343.647    633.15917    633.15917 
    6620    342.24478    44.194372   -12344.651    648.44241    648.44241 
    6630    295.10737    38.107476   -12338.556    698.93153    698.93153 
    6640    279.60813    36.106045   -12336.552    669.89969    669.89969 
    6650    316.37979    40.854402   -12341.309    561.82791    561.82791 
    6660    322.21521    41.607935   -12342.063    536.18556    536.18556 
    6670    286.70257    37.022156    -12337.47    589.84365    589.84365 
    6680    284.08383    36.683996   -12337.133    549.28788    549.28788 
    6690    303.32202    39.168241   -12339.623    460.41491    460.41491 
    6700    288.37886    37.238617   -12337.689    500.54518    500.54518 
    6710    280.99651    36.285328   -12336.733     573.1742     573.1742 
    6720    310.48871    40.093682   -12340.547    544.64021    544.64021 
    6730    317.69784    41.024603   -12341.479     536.0475     536.0475 
    6740    293.86541    37.947101   -12338.396    613.69132    613.69132 
    6750    295.87429    38.206509   -12338.656    630.01441    630.01441 
    6760    312.27058    40.323776   -12340.778    580.13679    580.13679 
    6770    304.72599    39.349536   -12339.801     581.9898     581.9898 
    6780    292.67563    37.793463   -12338.243    609.14513    609.14513 
    6790    295.76108     38.19189   -12338.644    599.84139    599.84139 
    6800    296.82828    38.329698   -12338.781    603.00305    603.00305 
    6810    301.96475    38.992976   -12339.443      596.888      596.888 
    6820    315.70436    40.767183   -12341.221    527.67913    527.67913 
    6830    308.11494    39.787155    -12340.24    476.60502    476.60502 
    6840    283.14832    36.563194   -12337.013    488.75052    488.75052 
    6850    276.42178    35.694589   -12336.144    494.41324    494.41324 
    6860    288.72656    37.283516   -12337.736    482.49289    482.49289 
    6870    288.96369    37.314137   -12337.766    543.49515    543.49515 
    6880    288.75254    37.286871   -12337.736    626.29349    626.29349 
    6890    311.30463    40.199042    -12340.65    632.44616    632.44616 
    6900    332.43748    42.927946   -12343.382     627.4646     627.4646 
    6910     324.2334    41.868545    -12342.32     666.5832     666.5832 
    6920    308.18773    39.796555   -12340.247    651.42505    651.42505 
    6930    301.46151    38.927991    -12339.38    573.77279    573.77279 
    6940    287.59842    37.137839   -12337.589    547.88124    547.88124 
    6950    278.71328    35.990493    -12336.44    530.60171    530.60171 
    6960    291.79744    37.680062   -12338.132    458.95659    458.95659 
    6970    301.65871    38.953457   -12339.407     436.3226     436.3226 
    6980    290.25407    37.480765   -12337.931    514.45833    514.45833 
    6990    291.44152    37.634101   -12338.084    561.84592    561.84592 
    7000    308.14611     39.79118   -12340.245    572.05819    572.05819 
    7010    304.27576    39.291398   -12339.743    644.05685    644.05685 
    7020    296.22828     38.25222   -12338.701    685.48389    685.48389 
    7030    312.89729    40.404704   -12340.858    598.73201    598.73201 
    7040    313.87742    40.531269   -12340.986    526.24599    526.24599 
    7050    287.41867    37.114627   -12337.563    542.75249    542.75249 
    7060    288.19738    37.215183   -12337.664    537.86794    537.86794 
    7070    310.84826     40.14011   -12340.594    534.86795    534.86795 
    7080     309.9349    40.022167   -12340.474    603.74324    603.74324 
    7090    301.61197     38.94742   -12339.397     644.0504     644.0504 
    7100    307.48941    39.706379    -12340.16    598.44679    598.44679 
    7110    294.33982    38.008362    -12338.46    589.52466    589.52466 
    7120    281.95523    36.409128   -12336.857    581.94602    581.94602 
    7130    300.84143    38.847921   -12339.301    506.83422    506.83422 
    7140     306.4363     39.57039   -12340.025    485.97199    485.97199 
    7150    283.02458    36.547214   -12336.996    546.69671    546.69671 
    7160    281.02171    36.288582   -12336.737    552.32506    552.32506 
    7170    303.73696    39.221822   -12339.675    513.14604    513.14604 
    7180    312.39011    40.339212   -12340.791    533.64753    533.64753 
    7190    309.36193    39.948179     -12340.4    579.54818    579.54818 
    7200    300.37211    38.787316   -12339.239    626.49363    626.49363 
    7210    295.41843    38.147643   -12338.597    666.89342    666.89342 
    7220    310.94848    40.153052   -12340.605    644.98147    644.98147 
    7230    316.18819    40.829661   -12341.285    570.18874    570.18874 
    7240    285.71538     36.89468   -12337.344    501.29807    501.29807 
    7250     271.0642     35.00276   -12335.451    424.02589    424.02589 
    7260    288.39506    37.240709   -12337.694    396.89434    396.89434 
    7270    292.07219    37.715541   -12338.166    518.97409    518.97409 
    7280    300.80207    38.842837   -12339.292    669.44656    669.44656 
    7290    330.92099     42.73212   -12343.186    721.95146    721.95146 
    7300    335.17777    43.281803   -12343.736    727.95168    727.95168 
    7310    313.67512    40.505146   -12340.955    693.94972    693.94972 
    7320    300.15237    38.758941   -12339.211    589.53679    589.53679 
    7330    284.58561    36.748792     -12337.2    478.87153    478.87153 
    7340    269.24576    34.767943   -12335.217    422.43734    422.43734 
    7350    280.28901    36.193968   -12336.645    443.11616    443.11616 
    7360    300.17575     38.76196   -12339.214    547.11356    547.11356 
    7370    311.46597    40.219877   -12340.671    628.80651    628.80651 
    7380    320.11223    41.336376    -12341.79    605.87111    605.87111 
    7390    301.87171    38.980961   -12339.433    587.37336    587.37336 
    7400    277.89125    35.884343   -12336.331    588.02649    588.02649 
    7410    299.63394    38.691995   -12339.144    526.38664    526.38664 
    7420    317.84405    41.043484     -12341.5    508.28731    508.28731 
    7430    290.97838    37.574296   -12338.023    569.30293    569.30293 
    7440    285.61288    36.881443    -12337.33    540.97558    540.97558 
    7450    304.71282    39.347836   -12339.803    491.31492    491.31492 
    7460    291.66067    37.662401   -12338.113    572.79932    572.79932 
    7470    285.98089    36.928965   -12337.377    619.25572    619.25572 
    7480    313.20506    40.444446   -12340.899    561.35043    561.35043 
    7490     315.0663    40.684789   -12341.138    585.30943    585.30943 
    7500    299.19016    38.634691   -12339.083    653.29202    653.29202 
    7510    311.02513    40.162951   -12340.616    610.18568    610.18568 
    7520    306.52328    39.581622   -12340.036    563.57566    563.57566 
    7530    276.99565    35.768693   -12336.217    544.93505    544.93505 
    7540     279.5057    36.092818   -12336.543    472.94245    472.94245 
    7550    301.27706    38.904174   -12339.357    469.56785    469.56785 
    7560    308.87304    39.885049   -12340.336    587.02499    587.02499 
    7570    313.15807    40.438379    -12340.89    657.86193    657.86193 
    7580     311.3179    40.200756   -12340.653    651.06179    651.06179 
    7590    301.41133    38.921512   -12339.371    660.08056    660.08056 
    7600    310.41508    40.084174   -12340.536    627.78778    627.78778 
    7610    310.36448     40.07764   -12340.532    564.64817    564.64817 
    7620     279.9032    36.144148   -12336.593    532.38666    532.38666 
    7630    272.92667    35.243263   -12335.692      463.597      463.597 
    7640     296.0218    38.225558   -12338.679    395.95191    395.95191 
    7650    298.82025    38.586923   -12339.039    472.76726    472.76726 
    7660    293.47875    37.897171   -12338.346    609.66571    609.66571 
    7670    309.82066    40.007416   -12340.461    627.01079    627.01079 
    7680    307.68723    39.731924   -12340.185    623.66914    623.66914 
    7690    289.90423     37.43559   -12337.883    686.71894    686.71894 
    7700    311.42495     40.21458   -12340.665    672.63574    672.63574 
    7710    337.50927    43.582871    -12344.04    574.38514    574.38514 
    7720    309.09391     39.91357   -12340.366    537.91399    537.91399 
    7730    265.63007    34.301046   -12334.747    554.81842    554.81842 
    7740    274.02228     35.38474   -12335.834    511.84859    511.84859 
    7750    306.13785    39.531852   -12339.987    461.79491    461.79491 
    7760    297.78638    38.453419   -12338.906    511.69346    511.69346 
    7770    279.88664    36.142009    -12336.59    555.41387    555.41387 
    7780    295.48512    38.156254   -12338.608    520.06071    520.06071 
    7790    308.65416    39.856785    -12340.31    529.54812    529.54812 
    7800    301.48614    38.931172   -12339.381    608.52797    608.52797 
    7810    310.10196    40.043741   -12340.495    627.98102    627.98102 
    7820    316.14803    40.824475   -12341.279    620.53962    620.53962 
    7830     290.3308    37.490673   -12337.939    675.59889    675.59889 
    7840    294.75965    38.062574    -12338.51    668.90463    668.90463 
    7850    333.47302    43.061666   -12343.519     590.9746     590.9746 
    7860    316.97139    40.930796   -12341.385    609.14713    609.14713 
    7870    274.87628    35.495017    -12335.94    615.67543    615.67543 
    7880    290.09755    37.460553   -12337.912    469.03877    469.03877 
    7890    302.04741     39.00365    -12339.46    408.37326    408.37326 
    7900    272.17214    35.145829   -12335.593     534.8715     534.8715 
    7910    284.60542     36.75135     -12337.2    591.45486    591.45486 
    7920    326.90546    42.213591   -12342.671    569.76394    569.76394 
    7930    318.28961    41.101019   -12341.553    643.65535    643.65535 
    7940    302.05619    39.004783   -12339.453    672.27089    672.27089 
    7950    309.43658    39.957819   -12340.412    567.53373    567.53373 
    7960    290.92358    37.567219   -12338.019    491.09768    491.09768 
    7970    270.80432    34.969201   -12335.417    459.33167    459.33167 
    7980    283.55473    36.615673   -12337.068    446.14563    446.14563 
    7990    295.91218    38.211402   -12338.662     530.6996     530.6996 
    8000    313.03867    40.422961   -12340.873    635.41402    635.41402 
    8010    335.49612    43.322911   -12343.779    652.75076    652.75076 
    8020    309.34938    39.946559   -12340.399    660.30721    660.30721 
    8030    271.78271    35.095542   -12335.541    624.83067    624.83067 
    8040    291.08558    37.588139    -12338.04    473.70049    473.70049 
    8050    303.43135    39.182359   -12339.638     399.6648     399.6648 
    8060    276.06473    35.648483   -12336.096     485.6187     485.6187 
    8070     287.5762     37.13497   -12337.584    546.26408    546.26408 
    8080    322.79352    41.682612   -12342.139    579.72356    579.72356 
    8090    315.55871    40.748375     -12341.2    682.85191    682.85191 
    8100    302.35624    39.043528   -12339.493    737.19725    737.19725 
    8110    309.81504    40.006691   -12340.459    664.44936    664.44936 
    8120    306.73639    39.609142   -12340.061    561.63266    561.63266 
    8130     299.7875    38.711825   -12339.163    496.53893    496.53893 
    8140    294.15385    37.984347   -12338.436    500.07251    500.07251 
    8150    285.33988    36.846191   -12337.295    529.44926    529.44926 
    8160    298.36834    38.528568    -12338.98    501.15427    501.15427 
    8170    307.75076    39.740128   -12340.195    522.23305    522.23305 
    8180    287.66794    37.146816   -12337.595    640.70365    640.70365 
    8190    297.20319     38.37811   -12338.827    643.37194    643.37194 
    8200    323.27158    41.744345   -12342.201    549.57061    549.57061 
    8210    295.95366    38.216757   -12338.667    561.92837    561.92837 
    8220    279.17885    36.050612   -12336.496    548.59229    548.59229 
    8230    312.75948    40.386909   -12340.843    430.88082    430.88082 
    8240    299.13493    38.627559   -12339.082    456.70601    456.70601 
    8250    259.24169    33.476109    -12333.92    582.27851    582.27851 
    8260    290.63831    37.530382   -12337.981    587.59657    587.59657 
    8270    328.23918    42.385816   -12342.843    611.56249    611.56249 
    8280    316.09623    40.817786   -12341.267    710.37061    710.37061 
    8290    320.71887    41.414711   -12341.866    674.15883    674.15883 
    8300    321.60355     41.52895   -12341.985    590.04791    590.04791 
    8310    283.86137     36.65527   -12337.103    592.00736    592.00736 
    8320    281.93607    36.406654   -12336.855    524.47553    524.47553 
    8330    303.45799    39.185799   -12339.643    434.85034    434.85034 
    8340    278.20569    35.924947   -12336.374    499.04266    499.04266 
    8350    271.65737    35.079356   -12335.526    529.79449    529.79449 
    8360    305.97982    39.511445   -12339.967    467.26554    467.26554 
    8370    306.75603    39.611678   -12340.064    528.65333    528.65333 
    8380    300.99241    38.867417   -12339.316    628.11779    628.11779 
    8390    321.76573    41.549894   -12342.005    615.34514    615.34514 
    8400    310.65292    40.114886   -12340.568    633.07604    633.07604 
    8410    285.81003    36.906901   -12337.353    681.81178    681.81178 
    8420    305.64392    39.468069   -12339.921    610.57469    610.57469 
    8430    310.33853    40.074289   -12340.529    559.99945    559.99945 
    8440    285.05765    36.809747   -12337.257    591.30071    591.30071 
    8450    298.31419    38.521575   -12338.973    527.01197    527.01197 
    8460    313.86485    40.529646   -12340.986    456.76917    456.76917 
    8470    287.62835    37.141703   -12337.591    544.03483    544.03483 
    8480    283.39815    36.595453   -12337.044    622.05831    622.05831 
    8490    311.55787    40.231743   -12340.686    593.46172    593.46172 
    8500     312.0275    40.292387   -12340.745    603.56762    603.56762 
    8510    296.33394    38.265863   -12338.715    640.90347    640.90347 
    8520    304.14906    39.275037   -12339.727    567.30983    567.30983 
    8530    304.12547    39.271991   -12339.725    480.62928    480.62928 
    8540    284.15721    36.693472   -12337.143    495.82699    495.82699 
    8550    279.33661    36.070984    -12336.52    531.15976    531.15976 
    8560    297.45483    38.410605   -12338.862    530.76185    530.76185 
    8570    313.51312    40.484226   -12340.938    565.94235    565.94235 
    8580    310.10705    40.044398   -12340.496    647.06266    647.06266 
    8590    306.33331    39.557091   -12340.008    656.42741    656.42741 
    8600    309.68994    39.990535   -12340.444    587.16197    587.16197 
    8610    295.05558    38.100788   -12338.553    558.73232    558.73232 
    8620    276.08314     35.65086   -12336.099    552.39481    552.39481 
    8630    288.46915    37.250277   -12337.701    500.89707    500.89707 
    8640    306.15654    39.534265   -12339.988    500.48837    500.48837 
    8650     306.2893    39.551408   -12340.003    559.11433    559.11433 
    8660    304.00373    39.256271   -12339.708    573.82598    573.82598 
    8670    295.52136    38.160934   -12338.612    577.36689    577.36689 
    8680    289.25415    37.351645     -12337.8    603.88546    603.88546 
    8690    309.85971    40.012459   -12340.465    587.00901    587.00901 
    8700    320.73531    41.416834   -12341.872    581.43302    581.43302 
    8710    296.36834    38.270306   -12338.719      628.272      628.272 
    8720    294.10898    37.978553   -12338.428    593.03304    593.03304 
    8730    313.23306    40.448062   -12340.903     515.5924     515.5924 
    8740    297.89718    38.467727   -12338.919    547.78767    547.78767 
    8750    281.68183    36.373824   -12336.822    565.98622    565.98622 
    8760    294.47498    38.025815   -12338.479    489.61371    489.61371 
    8770    291.40509    37.629398   -12338.081    502.72993    502.72993 
    8780    285.46823    36.862765    -12337.31    601.76703    601.76703 
    8790    313.12891    40.434613   -12340.887    612.87406    612.87406 
    8800    328.15697    42.375199    -12342.83    583.70031    583.70031 
    8810    307.40107    39.694972   -12340.145    589.75032    589.75032 
    8820    291.48188    37.639313    -12338.09    573.86937    573.86937 
    8830    282.76466    36.513651   -12336.965    575.94278    575.94278 
    8840    282.67718    36.502354   -12336.951    612.52437    612.52437 
    8850    308.92681    39.891993   -12340.345    580.59202    580.59202 
    8860    315.35678      40.7223   -12341.177    542.20822    542.20822 
    8870    291.80798    37.681423   -12338.129    584.13619    584.13619 
    8880    302.68817    39.086391   -12339.537    600.31152    600.31152 
    8890    324.27764    41.874259   -12342.331    575.91911    575.91911 
    8900    299.38222    38.659491   -12339.111    594.66777    594.66777 
    8910    276.61584    35.719648   -12336.167    586.31215    586.31215 
    8920    293.59485    37.912163   -12338.365    504.37236    504.37236 
    8930    298.50207    38.545837   -12338.998    490.29301    490.29301 
    8940     294.7557    38.062065   -12338.511    530.70511    530.70511 
    8950    308.60061     39.84987   -12340.304    519.41341    519.41341 
    8960    297.34635    38.396598   -12338.849    549.07522    549.07522 
    8970    277.24514     35.80091   -12336.248     624.7263     624.7263 
    8980    302.24473     39.02913   -12339.481    617.97482    617.97482 
    8990    323.73747    41.804505   -12342.261    581.98166    581.98166 
    9000     298.5823    38.556196   -12339.006    602.68053    602.68053 
    9010    290.62432    37.528576   -12337.977    577.91275    577.91275 
    9020    307.88979    39.758081   -12340.212    522.94721    522.94721 
    9030    301.75247    38.965564   -12339.417    549.85457    549.85457 
    9040    290.45472    37.506675   -12337.956    607.99452    607.99452 
    9050    303.30694    39.166294   -12339.618    612.37101    612.37101 
    9060    312.98758    40.416363   -12340.869    612.23488    612.23488 
    9070    306.56595    39.587133   -12340.038    636.75298    636.75298 
    9080    303.60183    39.204373   -12339.655    639.49571    639.49571 
    9090    304.19128     39.28049   -12339.732    609.42223    609.42223 
    9100    299.38484     38.65983   -12339.112     551.7897     551.7897 
    9110    287.65331    37.144926   -12337.596    483.24102    483.24102 
    9120    281.24691    36.317662   -12336.768     441.4578     441.4578 
    9130    287.67087    37.147194   -12337.598    469.85329    469.85329 
    9140    299.48871    38.673242   -12339.125    552.68997    552.68997 
    9150     305.0894    39.396465   -12339.848    640.18251    640.18251 
    9160    312.91242    40.406658   -12340.858    666.00476    666.00476 
    9170    321.65291    41.535325   -12341.989    616.34756    616.34756 
    9180    304.93428    39.376434   -12339.829    555.26847    555.26847 
    9190    273.62383    35.333288   -12335.782    502.67658    502.67658 
    9200    269.29249    34.773978   -12335.223    439.28072    439.28072 
    9210    287.48097    37.122672   -12337.575    437.26491    437.26491 
    9220    304.19418    39.280864   -12339.732    547.59242    547.59242 
    9230    322.35951    41.626569   -12342.078    669.71481    669.71481 
    9240    332.25885     42.90488   -12343.359    718.66208    718.66208 
    9250    314.80793    40.651427   -12341.103     708.9414     708.9414 
    9260    295.74298    38.189553   -12338.639    617.21032    617.21032 
    9270    289.83919    37.427192    -12337.88    470.84429    470.84429 
    9280    276.55244    35.711461   -12336.162    397.57281    397.57281 
    9290     269.2526    34.768827   -12335.217    415.66345    415.66345 
    9300    290.45011     37.50608   -12337.958    461.24864    461.24864 
    9310    310.24338    40.062002   -12340.515    564.20357    564.20357 
    9320    312.00548    40.289543    -12340.74    707.39022    707.39022 
    9330    323.28325    41.745852   -12342.198    762.47604    762.47604 
    9340    327.86378     42.33734   -12342.792    743.22399    743.22399 
    9350     304.6667     39.34188   -12339.792    714.21392    714.21392 
    9360    295.01541    38.095601   -12338.545      597.023      597.023 
    9370    305.62547    39.465688    -12339.92    418.95192    418.95192 
    9380    285.46199     36.86196   -12337.314    372.99659    372.99659 
    9390    259.79446    33.547489   -12333.994     435.9724     435.9724 
    9400    281.12309    36.301673   -12336.753    460.70664    460.70664 
    9410    304.95069    39.378552   -12339.833    525.14345    525.14345 
    9420    300.38139    38.788515   -12339.238     665.1885     665.1885 
    9430    315.80561    40.780257   -12341.231    686.39788    686.39788 
    9440     330.5189    42.680198   -12343.137    609.26588    609.26588 
    9450    295.63882    38.176102   -12338.626    614.06713    614.06713 
    9460    276.12112    35.655764   -12336.102     603.9891     603.9891 
    9470     309.9977    40.030278   -12340.485    505.81133    505.81133 
    9480    314.48429    40.609635   -12341.065    530.88765    530.88765 
    9490     280.8958    36.272323   -12336.719    667.71134    667.71134 
    9500    293.53881    37.904926   -12338.355    634.60441    634.60441 
    9510    321.97042    41.576325   -12342.033    494.87111    494.87111 
    9520    297.06347    38.360069   -12338.811    478.55759    478.55759 
    9530    273.14543    35.271511   -12335.718    495.58427    495.58427 
    9540    292.03741    37.711049   -12338.164    463.28358    463.28358 
    9550    299.65112    38.694214   -12339.148     522.2385     522.2385 
    9560    289.62324    37.399306   -12337.848    651.54776    651.54776 
    9570     307.5853    39.718762    -12340.17     684.1103     684.1103 
    9580    326.93618    42.217559   -12342.672       656.31       656.31 
    9590     311.5224    40.227164   -12340.679    634.03044    634.03044 
    9600    291.88062    37.690802    -12338.14    562.76692    562.76692 
    9610    294.31572     38.00525   -12338.456    482.36836    482.36836 
    9620    302.93822     39.11868   -12339.571    489.03946    489.03946 
    9630    301.70518    38.959457   -12339.411    552.59334    552.59334 
    9640    295.36354    38.140555   -12338.591    608.45631    608.45631 
    9650    294.99128    38.092485   -12338.543    652.83156    652.83156 
    9660    305.65078    39.468956    -12339.92    654.96258    654.96258 
    9670    315.18535    40.700164   -12341.153    606.04358    606.04358 
    9680    310.06398    40.038837   -12340.491    570.92495    570.92495 
    9690    298.12209    38.496769   -12338.948    544.16146    544.16146 
    9700     286.2201    36.959855   -12337.411    489.74886    489.74886 
    9710    279.79007    36.129539    -12336.58    447.54801    447.54801 
    9720    281.14906    36.305027   -12336.756    471.47951    471.47951 
    9730    291.68529    37.665579   -12338.116    506.11368    506.11368 
    9740    306.70894    39.605596   -12340.059    513.97996    513.97996 
    9750    304.57183     39.32963   -12339.782    581.49881    581.49881 
    9760    293.28716    37.872431   -12338.321    679.77707    679.77707 
    9770    309.76902    40.000748   -12340.452    666.08513    666.08513 
    9780    329.47316    42.545161   -12343.001    608.26993    608.26993 
    9790    305.88486    39.499183    -12339.95    624.82948    624.82948 
    9800    283.79655    36.646899   -12337.094    580.92933    580.92933 
    9810    299.09135     38.62193   -12339.075    451.65532    451.65532 
    9820    295.79117    38.195775   -12338.649    457.99673    457.99673 
    9830    273.74752    35.349259   -12335.796    570.65962    570.65962 
    9840      296.943    38.344512   -12338.796    572.40506    572.40506 
    9850    320.28104    41.358174   -12341.814    567.36762    567.36762 
    9860     300.9733    38.864949   -12339.314     643.0871     643.0871 
    9870    301.16529     38.88974   -12339.339    635.18196    635.18196 
    9880    320.23376    41.352068   -12341.808    576.00566    576.00566 
    9890    300.53144    38.807891   -12339.259    608.20565    608.20565 
    9900    284.15643    36.693371    -12337.14    601.55035    601.55035 
    9910    311.56344    40.232463   -12340.687     489.6949     489.6949 
    9920    307.14568    39.661993   -12340.116    509.83163    509.83163 
    9930    276.07058    35.649238   -12336.096    605.49882    605.49882 
    9940    291.53562    37.646252   -12338.098    542.67305    542.67305 
    9950    308.84558    39.881504   -12340.337    478.80033    478.80033 
    9960    290.45719    37.506995   -12337.955    567.71611    567.71611 
    9970     298.7619    38.579389   -12339.029    626.83564    626.83564 
    9980     321.2654    41.485285   -12341.941     630.0147     630.0147 
    9990    302.06283     39.00564   -12339.456    670.44249    670.44249 
   10000     291.2947    37.615143   -12338.063    596.42772    596.42772 
Loop time of 11.3003 on 1 procs for 10000 steps with 1000 atoms

Performance: 38.229 ns/day, 0.628 hours/ns, 884.935 timesteps/s
99.2% CPU use with 1 MPI tasks x no OpenMP threads

MPI task timing breakdown:
Section |  min time  |  avg time  |  max time  |%varavg| %total
---------------------------------------------------------------
Pair    | 9.2239     | 9.2239     | 9.2239     |   0.0 | 81.63
Neigh   | 1.3375     | 1.3375     | 1.3375     |   0.0 | 11.84
Comm    | 0.085685   | 0.085685   | 0.085685   |   0.0 |  0.76
Output  | 0.57374    | 0.57374    | 0.57374    |   0.0 |  5.08
Modify  | 0.058722   | 0.058722   | 0.058722   |   0.0 |  0.52
Other   |            | 0.02074    |            |       |  0.18

Nlocal:    1000 ave 1000 max 1000 min
Histogram: 1 0 0 0 0 0 0 0 0 0
Nghost:    2055 ave 2055 max 2055 min
Histogram: 1 0 0 0 0 0 0 0 0 0
Neighs:    0 ave 0 max 0 min
Histogram: 1 0 0 0 0 0 0 0 0 0
FullNghs:  33682 ave 33682 max 33682 min
Histogram: 1 0 0 0 0 0 0 0 0 0

Total # of neighbors = 33682
Ave neighs/atom = 33.682
Neighbor list builds = 1000
Dangerous builds not checked

Total wall time: 0:00:11
