
# Define the lattice
variable	lattice_constant equal 6.22
lattice		diamond ${lattice_constant}
lattice		diamond 6.22
Lattice spacing in x,y,z = 6.22 6.22 6.22

# Define region
# multiples of lattice spacing
region 		simbox block 0 3 0 3 0 3

# Create Atoms
create_box 	1 simbox
Created orthogonal box = (0 0 0) to (18.66 18.66 18.66)
  1 by 1 by 1 MPI processor grid
create_atoms 	1 box
Created 216 atoms
  Time spent = 0.000755072 secs
mass		1 18.015

velocity	all create 600.0 97287

# Define Interatomic Potential
pair_style	sw
pair_coeff	* * mW.sw mW
Reading potential file mW.sw with DATE: 2019-02-27

neighbor 	0.1 bin
neigh_modify	delay 10 check no

# Pressure computations
compute		total_press all pressure thermo_temp
compute		peratom all stress/atom NULL
compute		p all reduce sum c_peratom[1] c_peratom[2] c_peratom[3]
variable	press equal -(c_p[1]+c_p[2]+c_p[3])/(3*vol)

thermo_style	custom step temp ke pe c_total_press v_press
thermo		10
dump		1 all atom 10 mW_liquid.dump

fix 		1 all nve
#temp 300.0 300.0 100.0 iso 0.0 0.0 1000.0
timestep	0.0005
run		100000
Neighbor list info ...
  update every 1 steps, delay 10 steps, check no
  max neighbors/atom: 2000, page size: 100000
  master list distance cutoff = 4.4065
  ghost atom cutoff = 4.4065
  binsize = 2.20325, bins = 9 9 9
  1 neighbor lists, perpetual/occasional/extra = 1 0 0
  (1) pair sw, perpetual
      attributes: full, newton on
      pair build: full/bin/atomonly
      stencil: full/bin/3d
      bin: standard
Per MPI rank memory allocation (min/avg/max) = 4.329 | 4.329 | 4.329 Mbytes
Step Temp KinEng PotEng c_total_press v_press 
       0          600    16.674559   -2673.3493   -14061.857   -14061.857 
      10    352.39164    9.7932917   -2666.4549   -13691.959   -13691.959 
      20    174.24839     4.842525   -2661.4984   -13827.013   -13827.013 
      30    328.31764    9.1242528   -2665.7937    -14766.47    -14766.47 
      40    251.91889    7.0010605   -2663.6656   -14815.703   -14815.703 
      50     133.6111    3.7131768   -2660.3694   -14420.129   -14420.129 
      60    323.61247    8.9934918   -2665.6604   -14617.296   -14617.296 
      70    373.30711    10.374552   -2667.0424   -14425.588   -14425.588 
      80    238.57749    6.6302906   -2663.2879    -13818.71    -13818.71 
      90    341.52686    9.4913495   -2666.1559   -14006.844   -14006.844 
     100    401.77114    11.165594   -2667.8344    -14321.56    -14321.56 
     110     237.8484    6.6100284   -2663.2691    -14105.27    -14105.27 
     120    258.22491    7.1763107   -2663.8377   -14256.172   -14256.172 
     130    369.41655     10.26643   -2666.9353   -14584.634   -14584.634 
     140    261.11199    7.2565454   -2663.9181   -14278.692   -14278.692 
     150    234.57454     6.519045   -2663.1787   -14105.328   -14105.328 
     160    372.88179    10.362732   -2667.0305   -14422.664   -14422.664 
     170    332.89241    9.2513901   -2665.9159   -14346.235   -14346.235 
     180     242.8381    6.7486971   -2663.4084   -14071.314   -14071.314 
     190    313.49056    8.7121946   -2665.3771   -14204.141   -14204.141 
     200    329.35147     9.152984   -2665.8184   -14264.427   -14264.427 
     210    262.59177    7.2976698   -2663.9585   -14116.588   -14116.588 
     220    304.75537    8.4694354   -2665.1332   -14295.732   -14295.732 
     230    340.33801    9.4583103   -2666.1241   -14526.426   -14526.426 
     240    274.96747     7.641602    -2664.304   -14417.503   -14417.503 
     250    257.02892    7.1430729   -2663.8052   -14320.848   -14320.848 
     260    304.01912    8.4489745   -2665.1136   -14372.664   -14372.664 
     270    305.25127    8.4832171   -2665.1469   -14251.375   -14251.375 
     280    296.86594    8.2501809   -2664.9128   -14065.406   -14065.406 
     290    328.18416    9.1205434   -2665.7846   -14087.383   -14087.383 
     300    334.82866    9.3052003   -2665.9699   -14202.394   -14202.394 
     310    286.59561    7.9647589   -2664.6277   -14247.447   -14247.447 
     320     264.9369    7.3628431   -2664.0251   -14355.784   -14355.784 
     330    299.72914    8.3297518   -2664.9942   -14538.858   -14538.858 
     340    294.51211    8.1847657   -2664.8489   -14506.012   -14506.012 
     350    263.80303    7.3313318   -2663.9934   -14314.491   -14314.491 
     360    298.63032    8.2992147   -2664.9627   -14190.699   -14190.699 
     370    335.78784    9.3318567   -2665.9966   -14043.467   -14043.467 
     380    323.96428    9.0032691   -2665.6658   -13935.702   -13935.702 
     390    348.32351    9.6802346   -2666.3441   -14144.937   -14144.937 
     400    346.06042    9.6173414   -2666.2833   -14371.896   -14371.896 
     410    239.55544    6.6574686   -2663.3194   -14308.744   -14308.744 
     420    209.10036    5.8110936   -2662.4719   -14340.953   -14340.953 
     430    301.19369    8.3704531    -2665.036   -14533.051   -14533.051 
     440    312.10137    8.6735878    -2665.338   -14440.269   -14440.269 
     450    280.68978    7.8006304   -2664.4623   -14266.112   -14266.112 
     460    322.42897    8.9606012   -2665.6252    -14305.63    -14305.63 
     470     319.0702    8.8672579   -2665.5315   -14230.121   -14230.121 
     480    289.81173    8.0541379   -2664.7156   -14093.885   -14093.885 
     490    342.95263    9.5309728    -2666.196   -14194.841   -14194.841 
     500    328.34511    9.1250164   -2665.7902   -14204.002   -14204.002 
     510    246.79311    6.8586102    -2663.519   -14127.455   -14127.455 
     520    292.92605    8.1406876   -2664.8045   -14363.832   -14363.832 
     530    324.55433    9.0196672    -2665.686   -14506.952   -14506.952 
     540    241.84954     6.721224   -2663.3819   -14300.841   -14300.841 
     550     281.4875    7.8227997   -2664.4849   -14305.261   -14305.261 
     560    376.96832    10.476301   -2667.1439    -14396.75    -14396.75 
     570    300.56482    8.3529762   -2665.0153   -14116.646   -14116.646 
     580    270.16137     7.508036   -2664.1687   -14063.078   -14063.078 
     590    353.95192    9.8366535   -2666.5039   -14392.397   -14392.397 
     600    279.93258    7.7795871   -2664.4432   -14367.288   -14367.288 
     610    206.77432    5.7464509   -2662.4052   -14247.617   -14247.617 
     620    335.87766    9.3343529   -2666.0005   -14468.948   -14468.948 
     630    354.95375    9.8644953   -2666.5311   -14378.591   -14378.591 
     640    242.50507    6.7394417   -2663.3987   -14027.191   -14027.191 
     650    307.25214    8.5388231   -2665.2026   -14181.409   -14181.409 
     660    364.27577    10.123563    -2666.791   -14390.157   -14390.157 
     670    254.82465    7.0818142   -2663.7425   -14217.072   -14217.072 
     680    258.53462    7.1849178   -2663.8465   -14242.793   -14242.793 
     690    346.99785    9.6433934   -2666.3101   -14386.081   -14386.081 
     700    306.10825    8.5070333   -2665.1695   -14208.033   -14208.033 
     710    300.29447    8.3454628   -2665.0074   -14181.471   -14181.471 
     720     353.9737    9.8372587    -2666.504     -14394.6     -14394.6 
     730    272.48274    7.5725492   -2664.2355   -14341.866   -14341.866 
     740    215.41867    5.9866854    -2662.647   -14323.102   -14323.102 
     750    296.17739    8.2310454   -2664.8966   -14522.405   -14522.405 
     760    298.80102    8.3039585   -2664.9682   -14349.122   -14349.122 
     770    273.81939    7.6096959     -2664.27   -13985.194   -13985.194 
     780    379.75713    10.553804   -2667.2192    -14051.28    -14051.28 
     790     396.0871    11.007629   -2667.6745   -14176.071   -14176.071 
     800    261.41319     7.264916   -2663.9258   -14121.386   -14121.386 
     810    239.08699    6.6444501    -2663.306   -14329.039   -14329.039 
     820    307.73815    8.5523297    -2665.218   -14616.505   -14616.505 
     830    284.58938    7.9090039   -2664.5725   -14512.535   -14512.535 
     840    257.28083    7.1500739   -2663.8119   -14311.883   -14311.883 
     850    303.36181    8.4307071    -2665.095   -14288.789   -14288.789 
     860    324.66791    9.0228236   -2665.6866   -14202.386   -14202.386 
     870    326.86248    9.0838126   -2665.7471   -14144.026   -14144.026 
     880    331.09837    9.2015321   -2665.8661    -14280.47    -14280.47 
     890    285.23759    7.9270183   -2664.5907   -14383.466   -14383.466 
     900    233.77868    6.4969272   -2663.1586   -14346.514   -14346.514 
     910    267.69793    7.4395748   -2664.1024   -14328.007   -14328.007 
     920    336.02112    9.3383399   -2666.0032   -14279.145   -14279.145 
     930    342.13982    9.5083841   -2666.1723    -14095.67    -14095.67 
     940    323.52714    8.9911204   -2665.6537   -13986.708   -13986.708 
     950    341.39156    9.4875894   -2666.1518   -14131.438   -14131.438 
     960    323.46402    8.9893662   -2665.6542   -14330.441   -14330.441 
     970    245.54779    6.8240018   -2663.4862   -14439.131   -14439.131 
     980    228.27837    6.3440686   -2663.0062   -14566.993   -14566.993 
     990    276.15718    7.6746653   -2664.3391   -14601.491   -14601.491 
    1000    284.78545     7.914453    -2664.578   -14381.084   -14381.084 
    1010    292.23375     8.121448   -2664.7837   -14157.472   -14157.472 
    1020    348.24194    9.6779678   -2666.3429   -14159.485   -14159.485 
    1030    341.39666    9.4877311   -2666.1519   -14171.557   -14171.557 
    1040    300.42753    8.3491608   -2665.0113   -14207.294   -14207.294 
    1050    310.51828     8.629592   -2665.2938   -14329.232   -14329.232 
    1060    292.01564    8.1153865   -2664.7793   -14288.719   -14288.719 
    1070    260.35969    7.2356382   -2663.8972   -14145.583   -14145.583 
    1080    312.19519     8.676195   -2665.3402   -14183.572   -14183.572 
    1090    340.15499     9.453224   -2666.1184   -14255.637   -14255.637 
    1100    295.43892    8.2105227   -2664.8726   -14281.442   -14281.442 
    1110    300.59047    8.3536892   -2665.0175   -14443.203   -14443.203 
    1120    288.67854    8.0226455   -2664.6876   -14508.108   -14508.108 
    1130    223.12435    6.2008335   -2662.8617   -14351.959   -14351.959 
    1140    275.38927    7.6533242   -2664.3159   -14293.722   -14293.722 
    1150    369.18119    10.259889   -2666.9262    -14230.84    -14230.84 
    1160    337.29967    9.3738719   -2666.0371    -14041.73    -14041.73 
    1170    304.77393    8.4699513   -2665.1322   -14110.809   -14110.809 
    1180    319.90552    8.8904722   -2665.5559   -14391.379   -14391.379 
    1190    257.68804    7.1613905   -2663.8242   -14424.631   -14424.631 
    1200    229.98331    6.3914503   -2663.0522   -14371.133   -14371.133 
    1210    320.44281     8.905404   -2665.5706    -14421.49    -14421.49 
    1220    342.26296    9.5118065   -2666.1766   -14294.849   -14294.849 
    1230    299.82921    8.3325328   -2664.9948   -14123.937   -14123.937 
    1240    303.22774    8.4269812   -2665.0911   -14140.955   -14140.955 
    1250     288.0936    8.0063895   -2664.6697   -14183.159   -14183.159 
    1260    285.68594    7.9394782   -2664.6015   -14303.597   -14303.597 
    1270    337.27781    9.3732644   -2666.0387    -14499.01    -14499.01 
    1280    304.53405    8.4632848   -2665.1275   -14390.783   -14390.783 
    1290    242.75343    6.7463439   -2663.4069   -14163.798   -14163.798 
    1300    306.93677    8.5300587   -2665.1939   -14219.523   -14219.523 
    1310    355.06926    9.8677053   -2666.5338   -14260.271   -14260.271 
    1320     294.2009     8.176117   -2664.8377   -14134.114   -14134.114 
    1330    306.48712    8.5175624   -2665.1808    -14278.34    -14278.34 
    1340    328.03562    9.1164154   -2665.7824   -14455.555   -14455.555 
    1350    245.73539    6.8292154   -2663.4909    -14358.93    -14358.93 
    1360    240.49179    6.6834908   -2663.3453   -14421.471   -14421.471 
    1370    308.06223    8.5613362   -2665.2272   -14576.161   -14576.161 
    1380    280.53236    7.7962555   -2664.4593   -14385.218   -14385.218 
    1390    274.11697     7.617966   -2664.2793   -14184.725   -14184.725 
    1400    356.22395    9.8997952   -2666.5653   -14189.101   -14189.101 
    1410    353.68852    9.8293333   -2666.4938   -14032.794   -14032.794 
    1420    305.69438    8.4955314   -2665.1572   -13907.351   -13907.351 
    1430     331.7611    9.2199499   -2665.8841   -14111.158   -14111.158 
    1440    331.87622    9.2231491   -2665.8881    -14288.94    -14288.94 
    1450    269.43077     7.487732   -2664.1501   -14310.604   -14310.604 
    1460    250.55054    6.9630327   -2663.6261   -14468.543   -14468.543 
    1470    256.06334    7.1162386   -2663.7799   -14581.163   -14581.163 
    1480    262.42425    7.2930143   -2663.9555   -14467.394   -14467.394 
    1490    311.67649    8.6617798   -2665.3256   -14371.322   -14371.322 
    1500    345.09142     9.590412   -2666.2554   -14316.721   -14316.721 
    1510    311.18166     8.648028   -2665.3113   -14142.835   -14142.835 
    1520    285.00174    7.9204637    -2664.583   -14035.885   -14035.885 
    1530    305.08657    8.4786399   -2665.1423   -14170.804   -14170.804 
    1540    321.06444    8.9226798   -2665.5867    -14330.01    -14330.01 
    1550    307.65199    8.5499352   -2665.2138   -14368.073   -14368.073 
    1560    277.90778    7.7233161   -2664.3861   -14375.161   -14375.161 
    1570    281.27279    7.8168328   -2664.4798   -14410.821   -14410.821 
    1580    307.01014    8.5320975   -2665.1965   -14333.429   -14333.429 
    1590    294.48351     8.183971   -2664.8472   -14133.356   -14133.356 
    1600    297.87364    8.2781859   -2664.9405   -14080.866   -14080.866 
    1610    347.44803    9.6559043   -2666.3211   -14203.903   -14203.903 
    1620     319.2239    8.8715293   -2665.5359   -14223.661   -14223.661 
    1630     252.8984    7.0282819   -2663.6894   -14241.197   -14241.197 
    1640    288.22532      8.01005   -2664.6735   -14406.508   -14406.508 
    1650    327.32676    9.0967156   -2665.7619   -14450.002   -14450.002 
    1660     292.8797    8.1393997   -2664.8019    -14394.32    -14394.32 
    1670    292.08273    8.1172511   -2664.7809   -14513.169   -14513.169 
    1680    280.09758    7.7841725   -2664.4492   -14494.956   -14494.956 
    1690    220.27085    6.1215321   -2662.7819   -14169.283   -14169.283 
    1700    298.35609    8.2915934   -2664.9543    -14086.36    -14086.36 
    1710    406.53998    11.298125   -2667.9657   -14132.081   -14132.081 
    1720    334.45175    9.2947256   -2665.9575    -13949.81    -13949.81 
    1730    287.43585    7.9881101   -2664.6487   -14030.507   -14030.507 
    1740    359.92308    10.002598   -2666.6694   -14478.109   -14478.109 
    1750    287.93443     8.001966   -2664.6668   -14584.126   -14584.126 
    1760    163.76434    4.5511635   -2661.2098    -14467.69    -14467.69 
    1770    250.23333    6.9542171    -2663.618   -14596.632   -14596.632 
    1780    336.00317    9.3378409    -2666.004   -14437.323   -14437.323 
    1790     307.3259     8.540873   -2665.2023   -13929.501   -13929.501 
    1800    356.80215    9.9158641   -2666.5795   -13802.817   -13802.817 
    1810    394.15856    10.954033   -2667.6206   -14000.216   -14000.216 
    1820    296.08446    8.2284629   -2664.8905   -14172.225   -14172.225 
    1830    251.51712    6.9898949   -2663.6519   -14514.705   -14514.705 
    1840    270.39886     7.514636   -2664.1799   -14794.591   -14794.591 
    1850    225.58976    6.2693494   -2662.9313   -14608.191   -14608.191 
    1860    250.61172    6.9647331   -2663.6265   -14346.151   -14346.151 
    1870    349.10897    9.7020633   -2666.3678    -14222.06    -14222.06 
    1880    355.16734    9.8704311   -2666.5342   -14041.692   -14041.692 
    1890    339.45897    9.4338809   -2666.0966   -14011.523   -14011.523 
    1900     341.8461    9.5002214   -2666.1656   -14171.835   -14171.835 
    1910    267.30006    7.4285176   -2664.0911   -14239.012   -14239.012 
    1920    236.66044     6.577014   -2663.2382   -14364.952   -14364.952 
    1930    304.02483     8.449133   -2665.1145   -14559.184   -14559.184 
    1940    296.69579    8.2454522   -2664.9095    -14454.34    -14454.34 
    1950    265.52847    7.3792835   -2664.0407   -14263.157   -14263.157 
    1960     316.8613    8.8058707   -2665.4705    -14285.05    -14285.05 
    1970    324.17326    9.0090768   -2665.6733   -14246.071   -14246.071 
    1980    298.93119     8.307576   -2664.9694   -14154.208   -14154.208 
    1990    338.39979    9.4044452   -2666.0691   -14212.903   -14212.903 
    2000    328.10994    9.1184808    -2665.783   -14188.698   -14188.698 
    2010    273.88147     7.611421    -2664.273   -14150.308   -14150.308 
    2020    294.31555    8.1793031   -2664.8433   -14359.573   -14359.573 
    2030    293.80992    8.1652511     -2664.83   -14515.705   -14515.705 
    2040    245.72553    6.8289412   -2663.4904    -14493.55    -14493.55 
    2050    281.63849    7.8269959   -2664.4906   -14563.502   -14563.502 
    2060    310.17726    8.6201149   -2665.2855   -14481.282   -14481.282 
    2070    262.10755    7.2842128   -2663.9456   -14115.686   -14115.686 
    2080    305.61009    8.4931889   -2665.1556   -13974.539   -13974.539 
    2090     393.0004    10.921847   -2667.5882   -14036.573   -14036.573 
    2100    354.15567    9.8423159   -2666.5058   -13951.427   -13951.427 
    2110    303.91927    8.4461996   -2665.1084       -14063       -14063 
    2120    302.45059    8.4053836   -2665.0702   -14482.402   -14482.402 
    2130    249.39283    6.9308591   -2663.5938    -14731.36    -14731.36 
    2140    223.38858    6.2081767   -2662.8699   -14744.872   -14744.872 
    2150    275.24727    7.6493778   -2664.3139   -14625.333   -14625.333 
    2160     290.0264    8.0601036   -2664.7239   -14268.192   -14268.192 
    2170    293.61099    8.1597229   -2664.8217   -13939.963   -13939.963 
    2180    356.95092    9.9199983   -2666.5845   -13966.616   -13966.616 
    2190    373.83118    10.389117   -2667.0541   -14096.661   -14096.661 
    2200    316.70291    8.8014687   -2665.4643   -14154.449   -14154.449 
    2210    282.85002    7.8606654   -2664.5237   -14310.466   -14310.466 
    2220    274.46749     7.627707   -2664.2912   -14476.784   -14476.784 
    2230    269.48633    7.4892762   -2664.1522   -14455.181   -14455.181 
    2240    285.76936    7.9417965   -2664.6054   -14358.993   -14358.993 
    2250    299.04013    8.3106037   -2664.9742   -14294.064   -14294.064 
    2260    307.14826    8.5359361   -2665.1993     -14256.9     -14256.9 
    2270     314.9621    8.7530899   -2665.4173   -14261.979   -14261.979 
    2280      290.805    8.0817418   -2664.7451   -14296.603   -14296.603 
    2290    272.49574    7.5729104   -2664.2353   -14331.864   -14331.864 
    2300    299.85783    8.3333284   -2664.9972   -14325.969   -14325.969 
    2310    312.17892    8.6757428   -2665.3396   -14239.134   -14239.134 
    2320     309.2908    8.5954792   -2665.2581   -14203.422   -14203.422 
    2330    332.75424    9.2475503   -2665.9121   -14304.479   -14304.479 
    2340    305.71881    8.4962105   -2665.1604    -14303.58    -14303.58 
    2350    255.52632    7.1013144   -2663.7625    -14199.67    -14199.67 
    2360    309.53949    8.6023906   -2665.2658   -14242.274   -14242.274 
    2370    366.11445    10.174662   -2666.8408   -14299.252   -14299.252 
    2380    301.81786    8.3877993   -2665.0509   -14240.584   -14240.584 
    2390    247.79346     6.886411   -2663.5481   -14302.472   -14302.472 
    2400    273.47962    7.6002532   -2664.2645   -14467.361   -14467.361 
    2410    274.33508    7.6240273   -2664.2877   -14473.892   -14473.892 
    2420    271.65912    7.5496599    -2664.212   -14406.959   -14406.959 
    2430    317.47285    8.8228661    -2665.487   -14371.457   -14371.457 
    2440    336.34682    9.3473913   -2666.0117   -14256.177   -14256.177 
    2450    313.91917     8.724106   -2665.3872   -14144.836   -14144.836 
    2460    302.41567    8.4044131   -2665.0679   -14152.836   -14152.836 
    2470    291.47354    8.1003212   -2664.7636   -14173.778   -14173.778 
    2480    296.39644     8.237133   -2664.8997   -14215.351   -14215.351 
    2490    335.99309    9.3375607   -2666.0021   -14322.774   -14322.774 
    2500     324.1249    9.0077328   -2665.6723   -14299.063   -14299.063 
    2510    267.33171    7.4293972   -2664.0913   -14183.111   -14183.111 
    2520    281.80612    7.8316545   -2664.4946   -14277.543   -14277.543 
    2530    320.56303    8.9087452   -2665.5739   -14475.974   -14475.974 
    2540     285.5979    7.9370316   -2664.6005   -14502.678   -14502.678 
    2550    248.65376    6.9103195   -2663.5723   -14436.606   -14436.606 
    2560    277.99964    7.7258689   -2664.3894    -14372.29    -14372.29 
    2570    313.12086    8.7019203   -2665.3657   -14222.148   -14222.148 
    2580    331.35007     9.208527    -2665.872    -14084.76    -14084.76 
    2590    343.98362    9.5596252   -2666.2237   -14092.301   -14092.301 
    2600    327.43501    9.0997239   -2665.7637   -14183.623   -14183.623 
    2610    286.47651    7.9614491   -2664.6246   -14285.328   -14285.328 
    2620    261.51837    7.2678389    -2663.931   -14388.425   -14388.425 
    2630    255.57678    7.1027167   -2663.7658   -14426.208   -14426.208 
    2640    272.02083    7.5597121   -2664.2226   -14402.521   -14402.521 
    2650    315.67416    8.7728787   -2665.4367   -14354.366   -14354.366 
    2660    342.78748    9.5263832   -2666.1905   -14227.305   -14227.305 
    2670    336.95099    9.3641817   -2666.0279   -14110.479   -14110.479 
    2680    314.90634    8.7515405   -2665.4149   -14127.698   -14127.698 
    2690    294.45965    8.1833077   -2664.8466   -14254.244   -14254.244 
    2700    284.38703    7.9033803   -2664.5666   -14395.108   -14395.108 
    2710    287.44475    7.9883573    -2664.652    -14485.92    -14485.92 
    2720     283.4683    7.8778479   -2664.5415    -14435.53    -14435.53 
    2730    272.09525    7.5617805   -2664.2247   -14266.039   -14266.039 
    2740    286.61848    7.9653945   -2664.6283    -14172.03    -14172.03 
    2750     326.2728    9.0674248   -2665.7314   -14238.215   -14238.215 
    2760    341.63018    9.4942209   -2666.1586   -14320.586   -14320.586 
    2770    309.04947    8.5887725   -2665.2524   -14339.982   -14339.982 
    2780    265.53037    7.3793363   -2664.0422   -14359.195   -14359.195 
    2790    253.77198    7.0525596   -2663.7153   -14358.377   -14358.377 
    2800    281.93798     7.835319   -2664.4984    -14283.97    -14283.97 
    2810    329.29644    9.1514546   -2665.8153   -14200.062   -14200.062 
    2820    356.09607    9.8962413   -2666.5607   -14172.866   -14172.866 
    2830    332.06881    9.2285014   -2665.8926   -14213.701   -14213.701 
    2840    280.09968    7.7842309   -2664.4469   -14313.784   -14313.784 
    2850     267.2917    7.4282852   -2664.0912    -14425.95    -14425.95 
    2860     284.1108    7.8957036   -2664.5596   -14398.818   -14398.818 
    2870    289.48798    8.0451404   -2664.7081   -14245.531   -14245.531 
    2880    317.71103    8.8294855   -2665.4928   -14199.184   -14199.184 
    2890    347.14201    9.6473997   -2666.3126   -14252.699   -14252.699 
    2900    299.04296    8.3106824   -2664.9742   -14246.011   -14246.011 
    2910    248.46485    6.9050694   -2663.5667    -14321.99    -14321.99 
    2920    280.17976    7.7864564   -2664.4502   -14529.386   -14529.386 
    2930    302.10018    8.3956452   -2665.0601   -14546.989   -14546.989 
    2940    281.41048    7.8206593   -2664.4832   -14326.753   -14326.753 
    2950    300.84086    8.3606476   -2665.0238   -14155.255   -14155.255 
    2960    336.44918    9.3502361   -2666.0148   -14114.915   -14114.915 
    2970    326.21859    9.0659183   -2665.7294   -14143.907   -14143.907 
    2980    308.40976    8.5709945   -2665.2344    -14275.14    -14275.14 
    2990    289.52287    8.0461101   -2664.7098   -14401.733   -14401.733 
    3000    262.91946    7.3067767   -2663.9693   -14417.063   -14417.063 
    3010    280.54708    7.7966645   -2664.4595   -14356.911   -14356.911 
    3020    324.40396     9.015488   -2665.6801   -14213.906   -14213.906 
    3030    323.62377    8.9938058   -2665.6571   -14041.259   -14041.259 
    3040     327.3186    9.0964888   -2665.7598   -14111.638   -14111.638 
    3050    333.38914    9.2651948   -2665.9302   -14353.542   -14353.542 
    3060    275.43611    7.6546261   -2664.3177   -14461.065   -14461.065 
    3070    234.66677    6.5216079   -2663.1836   -14528.567   -14528.567 
    3080    263.11951    7.3123363   -2663.9761   -14579.731   -14579.731 
    3090    281.16721    7.8138985   -2664.4777   -14416.438   -14416.438 
    3100    288.62983    8.0212916   -2664.6835   -14182.446   -14182.446 
    3110     343.2731     9.539879   -2666.2044   -14145.526   -14145.526 
    3120     351.7647    9.7758687   -2666.4407   -14090.875   -14090.875 
    3130    301.66631    8.3835876   -2665.0457   -13988.652   -13988.652 
    3140    307.22511    8.5380718   -2665.2011   -14147.318   -14147.318 
    3150    335.46861    9.3229852   -2665.9877    -14434.54    -14434.54 
    3160     302.3425    8.4023797   -2665.0663   -14530.758   -14530.758 
    3170    247.90439    6.8894939   -2663.5519   -14476.918   -14476.918 
    3180    248.09998    6.8949296   -2663.5576   -14423.869   -14423.869 
    3190    291.48799    8.1007225   -2664.7645   -14344.354   -14344.354 
    3200    321.08147    8.9231531   -2665.5872   -14266.027   -14266.027 
    3210     318.1159     8.840737   -2665.5043   -14254.603   -14254.603 
    3220    306.46727    8.5170107   -2665.1801   -14228.483   -14228.483 
    3230    308.73713    8.5800923   -2665.2437   -14191.336   -14191.336 
    3240    303.53627    8.4355555   -2665.0992   -14230.844   -14230.844 
    3250    293.21828    8.1488091    -2664.812   -14316.475   -14316.475 
    3260    295.62713    8.2157531   -2664.8794   -14336.003   -14336.003 
    3270    292.47371    8.1281166   -2664.7914   -14310.379   -14310.379 
    3280    298.20672    8.2874424   -2664.9506   -14351.757   -14351.757 
    3290    311.68263    8.6619506   -2665.3263   -14355.538   -14355.538 
    3300    290.10637    8.0623263   -2664.7254   -14236.749   -14236.749 
    3310    290.63044    8.0768907   -2664.7391   -14238.491   -14238.491 
    3320    338.73885    9.4138681   -2666.0791   -14346.798   -14346.798 
    3330    308.16804    8.5642768   -2665.2285   -14231.666   -14231.666 
    3340    246.49515    6.8503296   -2663.5115   -14165.088   -14165.088 
    3350    286.23094    7.9546243   -2664.6182   -14414.636   -14414.636 
    3360     320.2748    8.9007349   -2665.5661   -14520.074   -14520.074 
    3370    275.80587    7.6649021   -2664.3268   -14314.957   -14314.957 
    3380    297.93048    8.2797655   -2664.9426   -14245.277   -14245.277 
    3390    346.56017    9.6312298   -2666.2967   -14217.349   -14217.349 
    3400    311.19474    8.6483917    -2665.311   -14049.222   -14049.222 
    3410    309.38632     8.598134   -2665.2606   -14119.238   -14119.238 
    3420    343.04296    9.5334833   -2666.1995   -14343.758   -14343.758 
    3430    269.36725    7.4859667   -2664.1489   -14270.659   -14270.659 
    3440    225.75347    6.2738991   -2662.9343   -14260.962   -14260.962 
    3450    312.70503    8.6903638   -2665.3561   -14568.452   -14568.452 
    3460    306.55446    8.5194338   -2665.1841   -14564.377   -14564.377 
    3470    246.04913    6.8379345   -2663.4984   -14345.073   -14345.073 
    3480    310.94623    8.6414852   -2665.3055   -14383.477   -14383.477 
    3490    349.69993    9.7184866   -2666.3848    -14329.52    -14329.52 
    3500    268.93044    7.4738275   -2664.1347   -14007.966   -14007.966 
    3510    298.20013    8.2872592   -2664.9494   -14014.433   -14014.433 
    3520    387.76129    10.776247   -2667.4431   -14194.123   -14194.123 
    3530    331.80289    9.2211113   -2665.8844   -14102.942   -14102.942 
    3540    275.37914    7.6530428   -2664.3146   -14224.599   -14224.599 
    3550    295.83911    8.2216444    -2664.887   -14656.756   -14656.756 
    3560    239.38455    6.6527196   -2663.3164   -14728.449   -14728.449 
    3570    186.08605    5.1715046   -2661.8314   -14485.334   -14485.334 
    3580    292.31205     8.123624   -2664.7877   -14396.185   -14396.185 
    3590    377.78984    10.499131   -2667.1651   -14160.795   -14160.795 
    3600    349.93128     9.724916   -2666.3877   -13792.084   -13792.084 
    3610    342.10335    9.5073706   -2666.1707   -13834.854   -13834.854 
    3620    337.13422    9.3692738   -2666.0341   -14168.254   -14168.254 
    3630    278.07713    7.7280223   -2664.3904   -14385.923   -14385.923 
    3640    264.39103    7.3476729   -2664.0106   -14586.611   -14586.611 
    3650    274.69575    7.6340506   -2664.2987   -14681.604   -14681.604 
    3660    243.91437    6.7786075   -2663.4408   -14490.181   -14490.181 
    3670    270.47039     7.516624   -2664.1791   -14318.907   -14318.907 
    3680    342.34603    9.5141149   -2666.1793   -14258.973   -14258.973 
    3690    335.68155    9.3289029    -2665.993   -14101.426   -14101.426 
    3700    299.23525    8.3160262   -2664.9781   -14040.158   -14040.158 
    3710     319.3256    8.8743558   -2665.5385   -14267.402   -14267.402 
    3720    309.67028    8.6060254   -2665.2705   -14393.648   -14393.648 
    3730    262.04694    7.2825286   -2663.9445   -14269.016   -14269.016 
    3740    284.22314    7.8988258   -2664.5618   -14262.222   -14262.222 
    3750    331.61144    9.2157907   -2665.8806   -14364.159   -14364.159 
    3760    317.72719    8.8299345   -2665.4936   -14319.677   -14319.677 
    3770    287.55803    7.9915055   -2664.6543   -14231.772   -14231.772 
    3780    286.72054    7.9682308   -2664.6315   -14233.705   -14233.705 
    3790    295.98767    8.2257729   -2664.8893   -14244.582   -14244.582 
    3800    305.35427    8.4860794   -2665.1494   -14231.533   -14231.533 
    3810    318.12214    8.8409106   -2665.5049   -14268.921   -14268.921 
    3820    306.80188    8.5263098   -2665.1901   -14325.133   -14325.133 
    3830    279.83715     7.776935   -2664.4401   -14387.746   -14387.746 
    3840    266.88181    7.4168941   -2664.0799   -14478.089   -14478.089 
    3850    277.01416    7.6984815   -2664.3617   -14551.715   -14551.715 
    3860    297.06216    8.2556341   -2664.9195   -14525.011   -14525.011 
    3870    299.54131    8.3245319   -2664.9878   -14341.586   -14341.586 
    3880     308.2085    8.5654013   -2665.2285   -14097.294   -14097.294 
    3890    331.91855    9.2243255    -2665.888   -13900.802   -13900.802 
    3900    345.36139    9.5979145   -2666.2618   -13859.806   -13859.806 
    3910    338.46241    9.4061855   -2666.0699   -14024.596   -14024.596 
    3920    314.67285    8.7450515   -2665.4089   -14312.044   -14312.044 
    3930    271.36878     7.541591   -2664.2049   -14571.886   -14571.886 
    3940    234.94043    6.5292133   -2663.1919   -14698.755   -14698.755 
    3950     235.4206    6.5425578   -2663.2054   -14618.991   -14618.991 
    3960    268.70393    7.4675323   -2664.1305   -14369.878   -14369.878 
    3970    328.68617    9.1344948   -2665.7979   -14154.463   -14154.463 
    3980    385.88816    10.724191   -2667.3893   -14107.396   -14107.396 
    3990     358.6634    9.9675899   -2666.6323   -14126.616   -14126.616 
    4000    272.44223    7.5714233   -2664.2335   -14195.413   -14195.413 
    4010    247.55409    6.8797587   -2663.5423   -14380.696   -14380.696 
    4020    269.94092    7.5019096   -2664.1657   -14491.687   -14491.687 
    4030    283.54672    7.8800275   -2664.5433   -14440.759   -14440.759 
    4040    304.41078     8.459859   -2665.1233   -14334.686   -14334.686 
    4050    320.62121     8.910362   -2665.5746   -14186.444   -14186.444 
    4060    304.75448    8.4694109   -2665.1322   -14050.724   -14050.724 
    4070    317.30817    8.8182896   -2665.4813   -14141.974   -14141.974 
    4080    343.95193    9.5587444   -2666.2236   -14328.611   -14328.611 
    4090    307.55397    8.5472112   -2665.2106   -14325.226   -14325.226 
    4100    275.23152    7.6489402    -2664.311   -14281.706   -14281.706 
    4110    304.23704    8.4550306   -2665.1194   -14358.846   -14358.846 
    4120    293.70521    8.1623414   -2664.8268   -14356.905   -14356.905 
    4130    242.85483    6.7491619   -2663.4108   -14315.639   -14315.639 
    4140      272.398    7.5701939   -2664.2332   -14459.874   -14459.874 
    4150    324.98027    9.0315042   -2665.6967   -14532.608   -14532.608 
    4160    301.04214    8.3662415   -2665.0295   -14327.722   -14327.722 
    4170    284.34794    7.9022939   -2664.5645   -14152.831   -14152.831 
    4180    324.43714    9.0164103   -2665.6805   -14147.032   -14147.032 
    4190    340.59945    9.4655758   -2666.1297   -14138.155   -14138.155 
    4200    321.93004    8.9467355   -2665.6103    -14188.45    -14188.45 
    4210    296.21628    8.2321263   -2664.8957     -14317.8     -14317.8 
    4220     270.2492    7.5104768   -2664.1735   -14372.908   -14372.908 
    4230     269.3053     7.484245   -2664.1471   -14382.187   -14382.187 
    4240    296.60081    8.2428126   -2664.9066   -14416.665   -14416.665 
    4250    310.16651    8.6198161   -2665.2838    -14378.59    -14378.59 
    4260    302.03122    8.3937287   -2665.0568   -14260.193   -14260.193 
    4270    306.06212    8.5057514   -2665.1695   -14225.452   -14225.452 
    4280    299.40671    8.3207914   -2664.9845   -14227.665   -14227.665 
    4290    286.00382    7.9483125    -2664.611   -14206.856   -14206.856 
    4300     309.7565    8.6084216   -2665.2717   -14255.184   -14255.184 
    4310    339.58589    9.4374082    -2666.102   -14336.718   -14336.718 
    4320    316.23183    8.7883771   -2665.4522   -14344.916   -14344.916 
    4330    276.08214    7.6725798   -2664.3352     -14374.1     -14374.1 
    4340    271.54764    7.5465617   -2664.2101   -14475.501   -14475.501 
    4350    269.97782     7.502935   -2664.1664   -14452.189   -14452.189 
    4360    272.34436    7.5687034   -2664.2316   -14327.655   -14327.655 
    4370    302.52503    8.4074523   -2665.0709   -14258.126   -14258.126 
    4380    330.91999    9.1965745    -2665.861   -14218.246   -14218.246 
    4390    315.33119    8.7633474   -2665.4267    -14120.48    -14120.48 
    4400    303.32298    8.4296282   -2665.0924   -14088.213   -14088.213 
    4410    322.67564    8.9674566   -2665.6314   -14180.998   -14180.998 
    4420    324.83214    9.0273877   -2665.6913   -14279.473   -14279.473 
    4430    302.60284    8.4096147   -2665.0732   -14350.511   -14350.511 
    4440     274.1826    7.6197897   -2664.2828   -14370.347   -14370.347 
    4450    268.79295    7.4700064   -2664.1328   -14349.635   -14349.635 
    4460    297.94183     8.280081   -2664.9437   -14328.587   -14328.587 
    4470    317.18043    8.8147394   -2665.4791     -14284.3     -14284.3 
    4480    296.97315    8.2531603   -2664.9163   -14238.312   -14238.312 
    4490    288.15862    8.0081965   -2664.6713   -14327.114   -14327.114 
    4500    296.74286    8.2467603   -2664.9108   -14465.289   -14465.289 
    4510    283.20323    7.8704813   -2664.5339   -14446.358   -14446.358 
    4520    277.21017    7.7039287   -2664.3666   -14328.855   -14328.855 
    4530    307.84458    8.5552877   -2665.2192   -14260.003   -14260.003 
    4540    322.24513    8.9554921   -2665.6191   -14176.803   -14176.803 
    4550    327.44396    9.0999727   -2665.7632   -14120.093   -14120.093 
    4560    336.69309    9.3570146   -2666.0214    -14144.95    -14144.95 
    4570    304.81189    8.4710062   -2665.1346   -14197.254   -14197.254 
    4580    271.70827    7.5510258   -2664.2133   -14317.788   -14317.788 
    4590    290.73703    8.0798528   -2664.7438   -14463.897   -14463.897 
    4600    291.81826    8.1099011   -2664.7741   -14418.418   -14418.418 
    4610    266.03533    7.3933695   -2664.0556   -14270.878   -14270.878 
    4620    293.82838    8.1657643   -2664.8291   -14288.002   -14288.002 
    4630    325.24958    9.0389888   -2665.7039    -14369.86    -14369.86 
    4640    295.06371    8.2000954   -2664.8631   -14377.601   -14377.601 
    4650    281.18032    7.8142628   -2664.4771    -14413.19    -14413.19 
    4660    296.47351     8.239275   -2664.9033    -14365.75    -14365.75 
    4670    297.10475    8.2568177   -2664.9194   -14143.747   -14143.747 
    4680    335.34302    9.3194949    -2665.983   -14056.604   -14056.604 
    4690    367.76042    10.220405   -2666.8857   -14131.835   -14131.835 
    4700    315.30824    8.7627095   -2665.4262   -14187.507   -14187.507 
    4710    257.72364    7.1623799   -2663.8245    -14340.85    -14340.85 
    4720    258.76236    7.1912468   -2663.8552   -14584.399   -14584.399 
    4730    244.71243    6.8007862   -2663.4639   -14578.059   -14578.059 
    4740    255.11147    7.0897852   -2663.7514    -14415.56    -14415.56 
    4750    341.69979    9.4961552   -2666.1611   -14330.155   -14330.155 
    4760    361.53482    10.047389   -2666.7125   -14116.569   -14116.569 
    4770    306.80399    8.5263686   -2665.1882   -13929.373   -13929.373 
    4780    317.11453     8.812908   -2665.4767   -14181.504   -14181.504 
    4790    313.96318    8.7253292   -2665.3903   -14474.739   -14474.739 
    4800    249.57342    6.9358778   -2663.5974   -14412.423   -14412.423 
    4810    269.34336    7.4853027   -2664.1477    -14357.39    -14357.39 
    4820    335.79737    9.3321216   -2665.9979   -14385.418   -14385.418 
    4830    301.37143    8.3753927   -2665.0387     -14178.6     -14178.6 
    4840     276.1541    7.6745795   -2664.3359   -14042.581   -14042.581 
    4850    344.16195     9.564581   -2666.2297   -14269.707   -14269.707 
    4860    338.49815    9.4071789   -2666.0725   -14414.242   -14414.242 
    4870    248.98082    6.9194089   -2663.5809   -14348.747   -14348.747 
    4880    244.78739    6.8028696   -2663.4653   -14435.283   -14435.283 
    4890    292.53513    8.1298238   -2664.7944   -14505.634   -14505.634 
    4900    298.38105    8.2922871   -2664.9553   -14303.654   -14303.654 
    4910    318.75394    8.8584689   -2665.5218   -14137.791   -14137.791 
    4920    342.16614    9.5091157   -2666.1738   -14122.079   -14122.079 
    4930    312.61549    8.6878756    -2665.351   -14080.311   -14080.311 
    4940    296.99615    8.2537995   -2664.9164   -14147.083   -14147.083 
    4950    314.44882    8.7388255   -2665.4035   -14396.331   -14396.331 
    4960    281.98067    7.8365053   -2664.4999   -14475.365   -14475.365 
    4970    254.22739    7.0652158   -2663.7269   -14379.635   -14379.635 
    4980    303.44174    8.4329285   -2665.0972   -14405.508   -14405.508 
    4990    318.39507    8.8484954   -2665.5134    -14389.52    -14389.52 
    5000    271.75741    7.5523914   -2664.2141   -14200.751   -14200.751 
    5010    301.76458    8.3863188   -2665.0492   -14192.149   -14192.149 
    5020    357.69697    9.9407319   -2666.6063   -14317.924   -14317.924 
    5030    319.78722    8.8871847   -2665.5509   -14258.848   -14258.848 
    5040    268.15784    7.4523562   -2664.1143   -14191.524   -14191.524 
    5050    284.54923     7.907888   -2664.5716   -14330.405   -14330.405 
    5060    294.25327    8.1775724   -2664.8418   -14410.958   -14410.958 
    5070    274.16791    7.6193815   -2664.2816   -14324.807   -14324.807 
    5080    304.26394    8.4557781   -2665.1195   -14386.363   -14386.363 
    5090    319.50707    8.8793989   -2665.5443   -14452.328   -14452.328 
    5100    272.70315    7.5786744   -2664.2411   -14282.486   -14282.486 
    5110    275.41562    7.6540566   -2664.3161   -14142.833   -14142.833 
    5120    343.38493    9.5429869   -2666.2078   -14169.251   -14169.251 
    5130    353.74591    9.8309282   -2666.4955   -14143.334   -14143.334 
    5140    309.59891    8.6040421   -2665.2667   -14155.251   -14155.251 
    5150    295.30001    8.2066624   -2664.8704   -14381.525   -14381.525 
    5160     271.4041    7.5425728   -2664.2064   -14514.916   -14514.916 
    5170    237.06676    6.5883059   -2663.2502   -14418.842   -14418.842 
    5180    276.52003    7.6847491   -2664.3476   -14358.526   -14358.526 
    5190    342.97922    9.5317118   -2666.1969   -14316.903   -14316.903 
    5200    334.20099    9.2877568   -2665.9514   -14132.426   -14132.426 
    5210    310.05784    8.6167962   -2665.2795   -14050.196   -14050.196 
    5220    315.29675    8.7623904   -2665.4267    -14182.88    -14182.88 
    5230    285.94014    7.9465428   -2664.6099   -14281.915   -14281.915 
    5240    265.86938    7.3887577   -2664.0509   -14384.958   -14384.958 
    5250    303.18531     8.425802   -2665.0901   -14555.824   -14555.824 
    5260    302.26208    8.4001448   -2665.0646   -14519.586   -14519.586 
    5270    260.95913    7.2522971   -2663.9143   -14310.211   -14310.211 
    5280    282.05105    7.8384613   -2664.5016   -14258.447   -14258.447 
    5290    321.95268    8.9473647   -2665.6118   -14266.188   -14266.188 
    5300    320.53149    8.9078685    -2665.571   -14159.238   -14159.238 
    5310    326.03944    9.0609395   -2665.7245   -14105.387   -14105.387 
    5320    323.29307    8.9846155   -2665.6487   -14123.303   -14123.303 
    5330    297.71474    8.2737699   -2664.9363   -14151.118   -14151.118 
    5340    309.29068    8.5954761   -2665.2592   -14310.428   -14310.428 
    5350    308.80445    8.5819631   -2665.2466     -14482.2     -14482.2 
    5360    256.41229    7.1259363   -2663.7882   -14503.199   -14503.199 
    5370    257.78064    7.1639641   -2663.8262   -14512.475   -14512.475 
    5380    309.83903    8.6107152   -2665.2759   -14466.653   -14466.653 
    5390    290.47522    8.0725769   -2664.7358   -14176.835   -14176.835 
    5400    285.71351    7.9402445   -2664.6019   -14020.417   -14020.417 
    5410    355.43789    9.8779501   -2666.5433   -14215.987   -14215.987 
    5420    340.17453     9.453767   -2666.1186   -14339.901   -14339.901 
    5430    260.17144    7.2304067   -2663.8921   -14351.405   -14351.405 
    5440    254.68199    7.0778495   -2663.7409   -14459.248   -14459.248 
    5450    276.91504    7.6957267   -2664.3597   -14458.246   -14458.246 
    5460    287.22197    7.9821659   -2664.6444   -14260.814   -14260.814 
    5470    346.67217    9.6343425   -2666.2986   -14153.468   -14153.468 
    5480    367.10843    10.202285   -2666.8675   -14084.684   -14084.684 
    5490    307.19706    8.5372922   -2665.1997   -13998.929   -13998.929 
    5500    290.22558     8.065639   -2664.7283   -14145.952   -14145.952 
    5510    309.61669    8.6045362   -2665.2693   -14414.761   -14414.761 
    5520    278.35044    7.7356178   -2664.3986   -14488.572   -14488.572 
    5530    266.56085    7.4079741   -2664.0704   -14527.407   -14527.407 
    5540    294.50281    8.1845074   -2664.8494   -14586.121   -14586.121 
    5550    265.35185    7.3743751   -2664.0374   -14379.776   -14379.776 
    5560    256.36847    7.1247184   -2663.7863   -14168.028   -14168.028 
    5570    327.82973    9.1106934   -2665.7754       -14252       -14252 
    5580    343.67336    9.5510027   -2666.2161   -14267.871   -14267.871 
    5590     289.4544    8.0442073   -2664.7058   -14069.669   -14069.669 
    5600    313.76029    8.7196907   -2665.3827    -14092.33    -14092.33 
    5610    355.34905     9.875481   -2666.5412    -14250.51    -14250.51 
    5620    298.95091     8.308124   -2664.9709   -14185.095   -14185.095 
    5630    273.54331    7.6020234   -2664.2636   -14198.868   -14198.868 
    5640    326.83668    9.0830956   -2665.7485   -14488.263   -14488.263 
    5650     293.7013    8.1622326   -2664.8267   -14587.239   -14587.239 
    5660    214.23976    5.9539224   -2662.6148   -14456.849   -14456.849 
    5670    251.19383    6.9809105   -2663.6438   -14454.376   -14454.376 
    5680    319.88808    8.8899875   -2665.5549   -14368.311   -14368.311 
    5690    323.83326    8.9996278   -2665.6625   -14051.051   -14051.051 
    5700    346.52244    9.6301812   -2666.2933   -13917.196   -13917.196 
    5710    375.60433    10.438394    -2667.104   -14065.791   -14065.791 
    5720    310.48668     8.628714   -2665.2918   -14185.756   -14185.756 
    5730    258.49568    7.1838356   -2663.8456   -14407.611   -14407.611 
    5740    276.13626    7.6740839   -2664.3387    -14709.71    -14709.71 
    5750    248.01902    6.8926794    -2663.556   -14650.209   -14650.209 
    5760     231.1641    6.4242655   -2663.0852   -14361.213   -14361.213 
    5770    320.21253    8.8990043   -2665.5635   -14260.215   -14260.215 
    5780     362.4003    10.071442   -2666.7371   -14153.501   -14153.501 
    5790    308.46684    8.5725807   -2665.2344   -13977.554   -13977.554 
    5800    318.49357     8.851233   -2665.5145   -14135.946   -14135.946 
    5810    335.88414    9.3345331        -2666   -14433.916   -14433.916 
    5820    266.00479    7.3925209   -2664.0547   -14449.466   -14449.466 
    5830      250.078    6.9499005   -2663.6116   -14390.559   -14390.559 
    5840    313.42476    8.7103659   -2665.3751   -14379.721   -14379.721 
    5850    323.95476    9.0030045   -2665.6669   -14230.461   -14230.461 
    5860    311.94044    8.6691153   -2665.3318   -14146.547   -14146.547 
    5870    324.86068    9.0281809   -2665.6931   -14295.417   -14295.417 
    5880    276.57643    7.6863165   -2664.3496   -14347.305   -14347.305 
    5890    241.21365     6.703552   -2663.3646   -14318.366   -14318.366 
    5900    310.58386    8.6314146   -2665.2959   -14412.813   -14412.813 
    5910    334.68835    9.3013009   -2665.9665   -14384.253   -14384.253 
    5920    279.99007    7.7811849   -2664.4431   -14241.888   -14241.888 
    5930    288.36444    8.0139163   -2664.6769   -14301.221   -14301.221 
    5940    314.62265    8.7436563   -2665.4087   -14396.375   -14396.375 
    5950    276.32124    7.6792247   -2664.3414   -14289.719   -14289.719 
    5960    290.15324    8.0636287    -2664.726   -14251.729   -14251.729 
    5970    346.93927    9.6417655   -2666.3071   -14295.872   -14295.872 
    5980    321.44098    8.9331442   -2665.5967    -14161.26    -14161.26 
    5990    288.97762     8.030957   -2664.6928   -14066.046   -14066.046 
    6000    322.70202    8.9681896   -2665.6327   -14233.594   -14233.594 
    6010    309.40132    8.5985508   -2665.2629   -14366.655   -14366.655 
    6020    255.77677    7.1082745   -2663.7702    -14397.69    -14397.69 
    6030    266.00492    7.3925244   -2664.0557   -14500.736   -14500.736 
    6040    291.54355    8.1022669   -2664.7665   -14516.449   -14516.449 
    6050    285.08455    7.9227651   -2664.5856   -14366.457   -14366.457 
    6060    301.76153    8.3862339   -2665.0493   -14260.919   -14260.919 
    6070     331.7107    9.2185491   -2665.8828   -14228.818   -14228.818 
    6080     327.3218    9.0965775   -2665.7599   -14156.886   -14156.886 
    6090    321.50502     8.934924   -2665.5984    -14142.94    -14142.94 
    6100    309.54962    8.6026723   -2665.2667   -14214.523   -14214.523 
    6110    275.02378     7.643167   -2664.3057   -14292.486   -14292.486 
    6120    280.31056    7.7900913   -2664.4528   -14408.728   -14408.728 
    6130    310.95923    8.6418465   -2665.3068    -14488.01    -14488.01 
    6140    277.29961    7.7064143   -2664.3696   -14371.779   -14371.779 
    6150    255.27681    7.0943804   -2663.7561   -14299.481   -14299.481 
    6160    310.38209    8.6258074   -2665.2898   -14404.343   -14404.343 
    6170    338.11279    9.3964692   -2666.0614   -14389.581   -14389.581 
    6180    299.47937    8.3228106   -2664.9852   -14189.281   -14189.281 
    6190    304.44445    8.4607949   -2665.1237   -14152.835   -14152.835 
    6200    330.72625    9.1911904   -2665.8562   -14257.633   -14257.633 
    6210    291.67891    8.1060285    -2664.769   -14242.022   -14242.022 
    6220    270.77993    7.5252263   -2664.1875   -14254.382   -14254.382 
    6230    305.21331     8.482162   -2665.1462   -14374.514   -14374.514 
    6240    311.46511    8.6559056   -2665.3202   -14413.548   -14413.548 
    6250    282.29181    7.8451522   -2664.5077   -14351.991   -14351.991 
    6260    288.86557    8.0278431   -2664.6914   -14336.756   -14336.756 
    6270    297.71642    8.2738167   -2664.9375   -14259.808   -14259.808 
    6280    297.74146    8.2745125   -2664.9372   -14156.949   -14156.949 
    6290    330.30908    9.1795969   -2665.8433   -14208.785   -14208.785 
    6300    342.69625     9.523848   -2666.1888   -14317.083   -14317.083 
    6310    281.62888    7.8267287   -2664.4897   -14347.676   -14347.676 
    6320    241.05228    6.6990674   -2663.3608   -14432.725   -14432.725 
    6330    279.59315     7.770154    -2664.434   -14530.904   -14530.904 
    6340    306.69128    8.5232362   -2665.1873   -14398.543   -14398.543 
    6350    306.00839     8.504258    -2665.167   -14230.852   -14230.852 
    6360     326.6657     9.078344   -2665.7424   -14263.422   -14263.422 
    6370    314.04515     8.727607    -2665.392   -14240.871   -14240.871 
    6380    264.42023    7.3484844     -2664.01   -14088.166   -14088.166 
    6390    301.26427    8.3724146   -2665.0354   -14161.766   -14161.766 
    6400    358.29769    9.9574264   -2666.6232   -14314.571   -14314.571 
    6410    314.00414    8.7264674   -2665.3894   -14237.279   -14237.279 
    6420    285.03942     7.921511   -2664.5835   -14250.585   -14250.585 
    6430    314.43346    8.7383985   -2665.4036   -14463.073   -14463.073 
    6440    270.10373    7.5064343   -2664.1701   -14488.914   -14488.914 
    6450    221.71082    6.1615501   -2662.8223   -14442.188   -14442.188 
    6460    290.37168    8.0696993    -2664.734   -14552.132   -14552.132 
    6470    322.84475    8.9721562   -2665.6372   -14402.994   -14402.994 
    6480     287.7945    7.9980773   -2664.6594   -14032.199   -14032.199 
    6490    337.95387    9.3920528   -2666.0559   -14014.838   -14014.838 
    6500    363.88371    10.112667   -2666.7787   -14168.703   -14168.703 
    6510    279.45479    7.7663087   -2664.4278   -14211.854   -14211.854 
    6520    277.01562     7.698522   -2664.3607   -14463.557   -14463.557 
    6530    323.98652    9.0038871   -2665.6702   -14689.874   -14689.874 
    6540    251.47982    6.9888585   -2663.6509    -14403.51    -14403.51 
    6550    241.95834    6.7242475   -2663.3845    -14130.68    -14130.68 
    6560    369.94081       10.281   -2666.9472   -14241.096   -14241.096 
    6570    372.31877    10.347085   -2667.0127   -14214.401   -14214.401 
    6580    271.50572    7.5453969   -2664.2061   -14090.837   -14090.837 
    6590    281.75791    7.8303147    -2664.494   -14329.761   -14329.761 
    6600    289.02461    8.0322632   -2664.6973   -14539.364   -14539.364 
    6610    233.36076    6.4853128   -2663.1464   -14432.052   -14432.052 
    6620    277.96081    7.7247898   -2664.3875    -14383.74    -14383.74 
    6630    355.35369    9.8756099   -2666.5411   -14352.955   -14352.955 
    6640    340.44975    9.4614155    -2666.125   -14174.607   -14174.607 
    6650    310.61587    8.6323044   -2665.2951   -14108.861   -14108.861 
    6660    305.12305    8.4796537   -2665.1438   -14254.386   -14254.386 
    6670    275.94941    7.6688911   -2664.3317   -14369.257   -14369.257 
    6680    274.51595    7.6290539   -2664.2917   -14449.712   -14449.712 
    6690    305.13177     8.479896   -2665.1445   -14516.105   -14516.105 
    6700    286.13389    7.9519272   -2664.6155    -14403.79    -14403.79 
    6710    262.98007    7.3084611   -2663.9704   -14213.837   -14213.837 
    6720    305.84391    8.4996872   -2665.1632   -14160.452   -14160.452 
    6730     348.0585    9.6728698   -2666.3375   -14177.305   -14177.305 
    6740    335.83043    9.3330402   -2665.9965   -14164.678   -14164.678 
    6750    314.18318    8.7314432   -2665.3948   -14227.019   -14227.019 
    6760     294.1476    8.1746357    -2664.838   -14338.455   -14338.455 
    6770    276.30659    7.6788173   -2664.3418   -14383.357   -14383.357 
    6780    280.11364    7.7846188   -2664.4476   -14346.165   -14346.165 
    6790    303.81874    8.4434058   -2665.1071   -14334.835   -14334.835 
    6800    312.98445    8.6981294   -2665.3624   -14395.602   -14395.602 
    6810    282.32484    7.8460701   -2664.5094   -14415.674   -14415.674 
    6820    258.00351    7.1701577   -2663.8324   -14398.377   -14398.377 
    6830    285.88068    7.9448903   -2664.6085   -14416.227   -14416.227 
    6840    306.81786    8.5267539   -2665.1908   -14339.116   -14339.116 
    6850    300.19991     8.342835   -2665.0055   -14176.015   -14176.015 
    6860    325.65804    9.0503401   -2665.7135   -14161.623   -14161.623 
    6870    357.04099    9.9225016   -2666.5875   -14253.693   -14253.693 
    6880    315.25589    8.7612547   -2665.4248   -14209.067   -14209.067 
    6890     265.1837    7.3697019   -2664.0315   -14186.034   -14186.034 
    6900    287.18347     7.981096   -2664.6445   -14352.836   -14352.836 
    6910    311.80966    8.6654807   -2665.3297   -14427.247   -14427.247 
    6920    298.79068    8.3036712   -2664.9667   -14287.703   -14287.703 
    6930    298.28947    8.2897422   -2664.9528    -14209.03    -14209.03 
    6940    310.41622    8.6267558   -2665.2909   -14312.389   -14312.389 
    6950    292.84302    8.1383802   -2664.8018   -14439.951   -14439.951 
    6960    271.01607    7.5317891   -2664.1948   -14548.266   -14548.266 
    6970    267.91547    7.4456204   -2664.1089   -14594.375   -14594.375 
    6980    271.13316    7.5350429   -2664.1983   -14457.248   -14457.248 
    6990    286.64144    7.9660325   -2664.6287   -14202.264   -14202.264 
    7000    334.61576    9.2992837    -2665.963   -14063.943   -14063.943 
    7010    366.65473    10.189676   -2666.8542   -14030.907   -14030.907 
    7020    343.93066    9.5581533   -2666.2218   -14035.123   -14035.123 
    7030    306.04105    8.5051659   -2665.1681    -14178.01    -14178.01 
    7040    287.55899     7.991532   -2664.6552   -14422.161   -14422.161 
    7050    262.22805    7.2875616   -2663.9509   -14504.205   -14504.205 
    7060    245.52572    6.8233885   -2663.4857   -14452.394   -14452.394 
    7070    282.42623     7.848888   -2664.5121   -14466.116   -14466.116 
    7080    326.54963    9.0751184   -2665.7399   -14444.753   -14444.753 
    7090    308.45627     8.572287   -2665.2359    -14257.96    -14257.96 
    7100    283.99251    7.8924162   -2664.5544   -14124.661   -14124.661 
    7110    320.61357    8.9101496   -2665.5739   -14184.181   -14184.181 
    7120    344.95866    9.5867223   -2666.2512   -14200.962   -14200.962 
    7130    315.65197    8.7722623   -2665.4356   -14181.642   -14181.642 
    7140    285.72596    7.9405906   -2664.6035   -14309.975   -14309.975 
    7150    276.23705    7.6768849   -2664.3406   -14487.496   -14487.496 
    7160    257.13619     7.146054   -2663.8088    -14514.97    -14514.97 
    7170     268.1628    7.4524939   -2664.1151   -14495.617   -14495.617 
    7180    312.95602    8.6973393   -2665.3616   -14443.147   -14443.147 
    7190    322.26973     8.956176   -2665.6199   -14244.272   -14244.272 
    7200    315.96081    8.7808452   -2665.4437   -14078.402   -14078.402 
    7210    329.65323    9.1613701   -2665.8253   -14099.786   -14099.786 
    7220    320.32372    8.9020944   -2665.5661     -14204.2     -14204.2 
    7230    283.57376    7.8807789   -2664.5435   -14328.042   -14328.042 
    7240    277.32709     7.707178   -2664.3704   -14481.388   -14481.388 
    7250    281.28172     7.817081    -2664.481   -14511.917   -14511.917 
    7260    272.33928    7.5685621   -2664.2309    -14394.45    -14394.45 
    7270    309.64022    8.6051901   -2665.2687   -14339.541   -14339.541 
    7280      341.325    9.4857397   -2666.1507   -14256.711   -14256.711 
    7290    303.58747    8.4369785   -2665.0999   -14065.665   -14065.665 
    7300    287.00881     7.976242   -2664.6386   -14059.445   -14059.445 
    7310     317.3772    8.8202079   -2665.4847   -14281.309   -14281.309 
    7320    300.46709    8.3502602   -2665.0143   -14422.257   -14422.257 
    7330    258.02465    7.1707452   -2663.8326   -14437.884   -14437.884 
    7340    286.11651    7.9514443   -2664.6147   -14478.732   -14478.732 
    7350    323.36449    8.9866003   -2665.6513   -14453.253   -14453.253 
    7360    302.56431    8.4085438   -2665.0717   -14330.226   -14330.226 
    7370    288.65003    8.0218531   -2664.6847   -14251.189   -14251.189 
    7380    301.65502    8.3832738   -2665.0468   -14223.282   -14223.282 
    7390    311.49462    8.6567256   -2665.3202    -14233.78    -14233.78 
    7400    312.23886    8.6774087   -2665.3412   -14259.336   -14259.336 
    7410    297.25215     8.260914   -2664.9241    -14215.89    -14215.89 
    7420    292.59055    8.1313637   -2664.7942   -14195.221   -14195.221 
    7430    312.01732    8.6712519   -2665.3351   -14294.135   -14294.135 
    7440    310.73311    8.6355626   -2665.2994   -14370.046   -14370.046 
    7450    289.90671    8.0567775   -2664.7196   -14388.376   -14388.376 
    7460    291.33144     8.096372     -2664.76   -14481.848   -14481.848 
    7470    282.08345    7.8393618   -2664.5032   -14496.168   -14496.168 
    7480    258.77281    7.1915373   -2663.8537   -14331.119   -14331.119 
    7490    293.96725    8.1696237   -2664.8327   -14219.687   -14219.687 
    7500    347.82669    9.6664275    -2666.331   -14158.867   -14158.867 
    7510    346.16694    9.6203015    -2666.284   -14060.914   -14060.914 
    7520    323.18312      8.98156    -2665.645   -14132.252   -14132.252 
    7530    294.22421    8.1767647   -2664.8409   -14394.427   -14394.427 
    7540    239.04041    6.6431557   -2663.3056   -14521.262   -14521.262 
    7550    234.89991    6.5280872   -2663.1898   -14492.191   -14492.191 
    7560     307.4476     8.544255   -2665.2086   -14448.657   -14448.657 
    7570    341.19657    9.4821705   -2666.1467   -14270.805   -14270.805 
    7580    321.50629    8.9349592   -2665.5978   -14054.031   -14054.031 
    7590    320.38062    8.9036757   -2665.5671   -14082.398   -14082.398 
    7600    319.26145     8.872573   -2665.5367   -14260.325   -14260.325 
    7610    289.03281    8.0324909   -2664.6955   -14357.102   -14357.102 
    7620    275.60107    7.6592103   -2664.3222    -14444.46    -14444.46 
    7630    280.87325    7.8057291   -2664.4694   -14512.627   -14512.627 
    7640    276.25444    7.6773682   -2664.3404   -14404.725   -14404.725 
    7650    290.01248    8.0597169   -2664.7225   -14243.941   -14243.941 
    7660    330.59981    9.1876767   -2665.8519   -14240.695   -14240.695 
    7670    334.11006    9.2852298   -2665.9496   -14270.543   -14270.543 
    7680    294.63113    8.1880733   -2664.8508   -14256.187   -14256.187 
    7690     284.4391    7.9048273   -2664.5675   -14323.154   -14323.154 
    7700    309.39338    8.5983302   -2665.2624   -14379.748   -14379.748 
    7710    307.33901    8.5412372    -2665.205   -14270.554   -14270.554 
    7720    291.53829    8.1021206   -2664.7647   -14212.773   -14212.773 
    7730    310.67634    8.6339848   -2665.2979   -14397.284   -14397.284 
    7740    303.17692     8.425569     -2665.09   -14516.823   -14516.823 
    7750    251.16215    6.9800301   -2663.6424   -14447.832   -14447.832 
    7760      247.596    6.8809233   -2663.5434   -14422.007   -14422.007 
    7770    289.48029    8.0449268   -2664.7089   -14361.263   -14361.263 
    7780    312.69451    8.6900715   -2665.3529   -14140.869   -14140.869 
    7790     357.5544    9.9367698   -2666.6002   -14048.186   -14048.186 
    7800    388.73159    10.803213   -2667.4689   -14087.845   -14087.845 
    7810    317.83511    8.8329337    -2665.496   -14022.076   -14022.076 
    7820    263.30943    7.3176143   -2663.9789   -14140.328   -14140.328 
    7830    301.72805    8.3853034     -2665.05   -14542.189   -14542.189 
    7840    285.41144    7.9318496   -2664.5964   -14682.726   -14682.726 
    7850    222.53976    6.1845871   -2662.8456   -14552.186   -14552.186 
    7860    263.68992    7.3281885   -2663.9914   -14556.297   -14556.297 
    7870    316.65147    8.8000391   -2665.4656   -14446.194   -14446.194 
    7880    282.35551    7.8469227   -2664.5089   -14090.663   -14090.663 
    7890    308.05104    8.5610252   -2665.2232   -14047.149   -14047.149 
    7900    383.95281    10.670406   -2667.3365   -14280.121   -14280.121 
    7910    338.46908     9.406371   -2666.0706   -14245.819   -14245.819 
    7920     253.0534    7.0325896   -2663.6937   -14159.529   -14159.529 
    7930    268.69804    7.4673687   -2664.1305   -14342.983   -14342.983 
    7940    302.50674    8.4069439   -2665.0713   -14441.933   -14441.933 
    7950    299.40229    8.3206683   -2664.9833   -14331.261   -14331.261 
    7960    323.92038     9.002049   -2665.6659   -14321.525   -14321.525 
    7970    326.12647    9.0633583   -2665.7279   -14313.782   -14313.782 
    7980    278.78701    7.7477505   -2664.4101   -14209.258   -14209.258 
    7990      275.741    7.6630992   -2664.3259   -14256.842   -14256.842 
    8000    304.44412    8.4607857    -2665.125   -14379.923   -14379.923 
    8010     297.5578    8.2694083   -2664.9328   -14352.898   -14352.898 
    8020    289.71712    8.0515086   -2664.7143   -14331.374   -14331.374 
    8030    304.12422    8.4518952   -2665.1159   -14415.641   -14415.641 
    8040    293.03325     8.143667    -2664.807   -14392.088   -14392.088 
    8050    284.88665    7.9172654   -2664.5797   -14322.745   -14322.745 
    8060    315.83285     8.777289   -2665.4412   -14367.513   -14367.513 
    8070    323.28689    8.9844438   -2665.6486    -14324.01    -14324.01 
    8080    297.39088    8.2647696   -2664.9275   -14145.213   -14145.213 
    8090    298.29401    8.2898682   -2664.9529   -14116.317   -14116.317 
    8100    313.03048    8.6994085   -2665.3636   -14276.749   -14276.749 
    8110    291.05815     8.088777   -2664.7521   -14380.817   -14380.817 
    8120    270.33891    7.5129699   -2664.1754   -14407.006   -14407.006 
    8130    291.26836    8.0946189   -2664.7581    -14453.35    -14453.35 
    8140    311.03778    8.6440295    -2665.308   -14433.915   -14433.915 
    8150    303.79825    8.4428363   -2665.1063       -14303       -14303 
    8160    296.73969    8.2466724   -2664.9093   -14169.123   -14169.123 
    8170    320.95855    8.9197369   -2665.5834   -14172.727   -14172.727 
    8180    332.29398     9.234759    -2665.899   -14245.023   -14245.023 
    8190    303.54451    8.4357846   -2665.0991   -14308.673   -14308.673 
    8200     276.8441    7.6937554   -2664.3565   -14354.472   -14354.472 
    8210    281.77236    7.8307164   -2664.4941   -14366.202   -14366.202 
    8220    288.78182    8.0255157    -2664.689   -14353.188   -14353.188 
    8230    292.64732    8.1329414   -2664.7961   -14402.854   -14402.854 
    8240    301.65483    8.3832686   -2665.0475    -14508.57    -14508.57 
    8250    273.56368    7.6025894    -2664.266   -14471.887   -14471.887 
    8260    250.92091    6.9733257    -2663.635     -14325.5     -14325.5 
    8270    307.78534    8.5536412   -2665.2169   -14237.451   -14237.451 
    8280    368.79355    10.249116   -2666.9142   -14131.039   -14131.039 
    8290    353.31522     9.818959   -2666.4823   -13993.204   -13993.204 
    8300     332.5154    9.2409127   -2665.9038   -14060.952   -14060.952 
    8310    325.32618    9.0411174    -2665.706   -14298.681   -14298.681 
    8320    255.72891    7.1069446   -2663.7699   -14413.951   -14413.951 
    8330    211.48679    5.8774147   -2662.5385    -14494.87    -14494.87 
    8340    274.45002    7.6272216   -2664.2911   -14633.067   -14633.067 
    8350    318.69247    8.8567604   -2665.5215   -14557.236   -14557.236 
    8360    299.47386    8.3226575   -2664.9851   -14285.869   -14285.869 
    8370    316.20011    8.7874955   -2665.4507   -14178.702   -14178.702 
    8380    338.65392    9.4115078   -2666.0763   -14223.306   -14223.306 
    8390    301.84177    8.3884638   -2665.0513   -14240.691   -14240.691 
    8400    282.40125    7.8481938   -2664.5109   -14342.835   -14342.835 
    8410    291.50986    8.1013304   -2664.7653   -14454.571   -14454.571 
    8420    277.37333    7.7084633   -2664.3714   -14393.151   -14393.151 
    8430    281.87003    7.8334307    -2664.496    -14287.51    -14287.51 
    8440    322.75828    8.9697531   -2665.6338   -14255.626   -14255.626 
    8450    331.32554    9.2078453   -2665.8719   -14201.091   -14201.091 
    8460    307.90137    8.5568659   -2665.2198   -14183.164   -14183.164 
    8470    300.66958    8.3558877   -2665.0192   -14300.923   -14300.923 
    8480    298.29743    8.2899633   -2664.9535    -14422.51    -14422.51 
    8490    287.92218    8.0016254   -2664.6647   -14443.274   -14443.274 
    8500    287.71187    7.9957809    -2664.659    -14425.85    -14425.85 
    8510    294.14057    8.1744405   -2664.8379   -14405.438   -14405.438 
    8520    298.61497    8.2987881    -2664.962   -14351.531   -14351.531 
    8530    310.12307    8.6186089   -2665.2821       -14316       -14316 
    8540    313.85921    8.7224396   -2665.3865   -14343.144   -14343.144 
    8550    283.16265    7.8693536   -2664.5326   -14337.184   -14337.184 
    8560     262.2801    7.2890083   -2663.9512   -14305.732   -14305.732 
    8570    298.69837     8.301106   -2664.9645   -14337.319   -14337.319 
    8580    331.78231    9.2205392   -2665.8852   -14315.479   -14315.479 
    8590    308.33344    8.5688734   -2665.2319   -14170.133   -14170.133 
    8600    298.84661    8.3052256   -2664.9677   -14151.059   -14151.059 
    8610    327.58917     9.104008   -2665.7683   -14332.017   -14332.017 
    8620    314.09871    8.7290957   -2665.3933   -14436.882   -14436.882 
    8630    261.53829    7.2683926   -2663.9306   -14387.527   -14387.527 
    8640    259.57588    7.2138555   -2663.8764   -14378.657   -14378.657 
    8650     299.1901    8.3147714   -2664.9786   -14378.866   -14378.866 
    8660    321.39956     8.931993   -2665.5956   -14285.331   -14285.331 
    8670    328.89694    9.1403522    -2665.804   -14228.079   -14228.079 
    8680    319.18408    8.8704228   -2665.5343   -14296.269   -14296.269 
    8690    283.92908    7.8906535   -2664.5538   -14397.111   -14397.111 
    8700    260.76186    7.2468148   -2663.9095   -14443.998   -14443.998 
    8710     269.5568    7.4912344   -2664.1543   -14406.622   -14406.622 
    8720    297.96228    8.2806493   -2664.9436   -14290.131   -14290.131 
    8730     341.3459    9.4863203   -2666.1503   -14187.963   -14187.963 
    8740    352.60491    9.7992187   -2666.4636   -14139.852   -14139.852 
    8750    313.89766    8.7235084   -2665.3868   -14198.424   -14198.424 
    8760    280.27782    7.7891815   -2664.4518   -14408.762   -14408.762 
    8770    280.09859    7.7842008    -2664.448   -14637.733   -14637.733 
    8780    265.15094    7.3687916   -2664.0321   -14622.014   -14622.014 
    8790    255.28773    7.0946838    -2663.757   -14428.344   -14428.344 
    8800    290.25807    8.0665421   -2664.7302   -14276.028   -14276.028 
    8810    315.64061    8.7719465   -2665.4356   -14158.511   -14158.511 
    8820    328.47713    9.1286853   -2665.7915   -14125.668   -14125.668 
    8830    356.61742    9.9107303   -2666.5751   -14239.539   -14239.539 
    8840    333.73384    9.2747741   -2665.9391   -14315.271   -14315.271 
    8850    267.99526    7.4478378   -2664.1098   -14324.594   -14324.594 
    8860    266.67728    7.4112101   -2664.0738   -14424.085   -14424.085 
    8870    301.93807    8.3911401   -2665.0558    -14469.51    -14469.51 
    8880    284.83772    7.9159056   -2664.5789   -14333.366   -14333.366 
    8890     283.8524    7.8885225   -2664.5507   -14294.612   -14294.612 
    8900    326.84284    9.0832669   -2665.7482    -14378.63    -14378.63 
    8910    303.15343     8.424916   -2665.0885    -14284.51    -14284.51 
    8920    268.03375    7.4489076   -2664.1103   -14213.478   -14213.478 
    8930    316.88194    8.8064442   -2665.4705   -14399.608   -14399.608 
    8940     331.6004    9.2154839   -2665.8806   -14464.444   -14464.444 
    8950     269.1099    7.4788147   -2664.1406   -14297.927   -14297.927 
    8960    271.29778     7.539618   -2664.2019   -14309.254   -14309.254 
    8970    321.40618     8.932177   -2665.5972   -14437.973   -14437.973 
    8980    299.10027     8.312275   -2664.9754   -14332.443   -14332.443 
    8990    286.92019    7.9737792   -2664.6353   -14195.333   -14195.333 
    9000    348.77342    9.6927381   -2666.3577   -14257.284   -14257.284 
    9010    339.64746    9.4391191   -2666.1036   -14253.502   -14253.502 
    9020    275.77912    7.6641587   -2664.3259   -14264.495   -14264.495 
    9030    274.68724    7.6338142   -2664.2975   -14477.633   -14477.633 
    9040    265.70203     7.384107   -2664.0478   -14538.487   -14538.487 
    9050    249.39308     6.930866   -2663.5922    -14412.72    -14412.72 
    9060    320.80117    8.9153631   -2665.5793   -14450.275   -14450.275 
    9070    359.99811    10.004683   -2666.6707   -14431.758   -14431.758 
    9080    282.66823    7.8556134   -2664.5171   -14122.582   -14122.582 
    9090    283.42082    7.8765285    -2664.538   -14009.468   -14009.468 
    9100    363.40331    10.099316   -2666.7654   -14190.946   -14190.946 
    9110    323.67148     8.995132   -2665.6589   -14228.398   -14228.398 
    9120    260.96317    7.2524094   -2663.9134   -14314.318   -14314.318 
    9130    296.94504    8.2523791    -2664.917    -14629.55    -14629.55 
    9140    281.25493    7.8163364   -2664.4808   -14657.807   -14657.807 
    9150    221.92689    6.1675549    -2662.828   -14395.444   -14395.444 
    9160    287.69625    7.9953467   -2664.6584   -14383.451   -14383.451 
    9170    363.87464    10.112415   -2666.7788   -14445.346   -14445.346 
    9180      305.467    8.4892124   -2665.1516   -14225.547   -14225.547 
    9190    281.13358    7.8129638   -2664.4745   -14125.719   -14125.719 
    9200    334.93003    9.3080175   -2665.9732   -14254.388   -14254.388 
    9210    316.84227    8.8053417   -2665.4687    -14225.34    -14225.34 
    9220     294.6669    8.1890674   -2664.8507   -14201.837   -14201.837 
    9230    340.99877    9.4766733   -2666.1413   -14361.654   -14361.654 
    9240    326.99168    9.0874032   -2665.7523   -14374.708   -14374.708 
    9250     245.4307    6.8207478    -2663.482   -14260.229   -14260.229 
    9260    252.32456    7.0123344   -2663.6748   -14438.707   -14438.707 
    9270    297.69459    8.2732097   -2664.9383   -14680.407   -14680.407 
    9280    267.06311    7.4219324   -2664.0845   -14576.748   -14576.748 
    9290    266.29141    7.4004861   -2664.0622   -14390.326   -14390.326 
    9300    333.45997     9.267163   -2665.9319    -14299.73    -14299.73 
    9310    340.33446    9.4582116   -2666.1221   -14117.333   -14117.333 
    9320    317.12514    8.8132028   -2665.4755   -14066.227   -14066.227 
    9330    331.74483    9.2194978   -2665.8838   -14312.672   -14312.672 
    9340    301.89064     8.389822    -2665.054   -14449.038   -14449.038 
    9350    242.36422    6.7355275   -2663.3966   -14354.194   -14354.194 
    9360     283.6588    7.8831423   -2664.5464   -14390.092   -14390.092 
    9370    331.29801    9.2070803   -2665.8724   -14392.953   -14392.953 
    9380    294.54241     8.185608   -2664.8476   -14190.024   -14190.024 
    9390    310.25479    8.6222696   -2665.2846   -14196.518   -14196.518 
    9400    360.05024    10.006132   -2666.6722   -14402.423   -14402.423 
    9410    288.49582    8.0175674    -2664.681   -14365.196   -14365.196 
    9420    213.92811    5.9452614   -2662.6056   -14310.596   -14310.596 
    9430    272.96946    7.5860755     -2664.25   -14504.116   -14504.116 
    9440    316.84602    8.8054458   -2665.4698   -14486.511   -14486.511 
    9450    314.80841    8.7488189   -2665.4112   -14280.522   -14280.522 
    9460    342.80884    9.5269768   -2666.1914   -14292.012   -14292.012 
    9470    315.56135    8.7697437   -2665.4343   -14361.234   -14361.234 
    9480    240.15199    6.6740473   -2663.3349   -14315.953   -14315.953 
    9490    275.08261     7.644802   -2664.3076   -14386.121   -14386.121 
    9500     336.7231    9.3578485   -2666.0233   -14408.138   -14408.138 
    9510    306.10019    8.5068094   -2665.1693   -14208.143   -14208.143 
    9520    304.77236    8.4699076   -2665.1322   -14155.913   -14155.913 
    9530    344.36844    9.5703197   -2666.2356   -14316.864   -14316.864 
    9540    299.83758    8.3327654    -2664.996   -14340.575   -14340.575 
    9550    257.74155    7.1628778   -2663.8243   -14349.053   -14349.053 
    9560    297.69232    8.2731467   -2664.9375   -14518.797   -14518.797 
    9570    295.59348    8.2148182    -2664.879    -14532.14    -14532.14 
    9580    256.24321    7.1212373   -2663.7828   -14336.196   -14336.196 
    9590    294.41982    8.1822008   -2664.8453   -14224.367   -14224.367 
    9600    346.65695    9.6339195   -2666.2987   -14175.486   -14175.486 
    9610    335.67941    9.3288433   -2665.9919    -14113.57    -14113.57 
    9620    326.00881    9.0600883   -2665.7237   -14235.179   -14235.179 
    9630    300.04138    8.3384294   -2665.0025   -14449.915   -14449.915 
    9640    243.96077    6.7798969   -2663.4419   -14551.509   -14551.509 
    9650    245.92959    6.8346124   -2663.4972   -14584.044   -14584.044 
    9660    284.69747    7.9120079   -2664.5763   -14514.078   -14514.078 
    9670    287.79468    7.9980822   -2664.6609    -14299.95    -14299.95 
    9680    316.83425    8.8051189   -2665.4675   -14169.428   -14169.428 
    9690    379.13163    10.536421   -2667.2017   -14182.533   -14182.533 
    9700    351.41032      9.76602   -2666.4301   -14113.489   -14113.489 
    9710    286.59207    7.9646604   -2664.6263   -14120.806   -14120.806 
    9720    293.56248    8.1583747   -2664.8222   -14376.808   -14376.808 
    9730    283.58148    7.8809934   -2664.5453   -14533.276   -14533.276 
    9740    233.86228    6.4992507   -2663.1608   -14451.568   -14451.568 
    9750    264.21833    7.3428734   -2664.0053   -14426.339   -14426.339 
    9760    333.12759    9.2579259   -2665.9231   -14447.537   -14447.537 
    9770    318.74286    8.8581608   -2665.5215   -14300.389   -14300.389 
    9780    297.60517    8.2707247   -2664.9327   -14184.869   -14184.869 
    9790    331.70148    9.2182929   -2665.8826   -14260.003   -14260.003 
    9800    322.04192    8.9498447    -2665.614   -14298.874   -14298.874 
    9810    277.00914     7.698342   -2664.3605   -14280.517   -14280.517 
    9820    283.50626    7.8789029   -2664.5422   -14359.436   -14359.436 
    9830    294.76861    8.1918943   -2664.8559   -14435.054   -14435.054 
    9840    280.15656    7.7858116   -2664.4484   -14467.481   -14467.481 
    9850    292.44007     8.127182   -2664.7907   -14538.133   -14538.133 
    9860     297.4174    8.2655065   -2664.9294   -14460.444   -14460.444 
    9870    280.70233    7.8009791   -2664.4632   -14188.913   -14188.913 
    9880    317.09419    8.8123428   -2665.4751   -14039.416   -14039.416 
    9890    374.87083    10.418009   -2667.0833   -14087.818   -14087.818 
    9900    340.89786    9.4738689    -2666.138   -14117.218   -14117.218 
    9910    271.85894    7.5552131   -2664.2168   -14213.931   -14213.931 
    9920    277.56595    7.7138163   -2664.3772   -14510.239   -14510.239 
    9930    286.00493    7.9483434   -2664.6126   -14692.386   -14692.386 
    9940     256.7891    7.1364081   -2663.7987   -14618.836   -14618.836 
    9950     271.7767    7.5529277   -2664.2157   -14513.546   -14513.546 
    9960    309.19488    8.5928137   -2665.2573   -14383.076   -14383.076 
    9970    296.30614    8.2346234   -2664.8977   -14156.612   -14156.612 
    9980    296.89354    8.2509479   -2664.9131   -14060.125   -14060.125 
    9990    345.65625     9.606109   -2666.2708   -14175.603   -14175.603 
   10000    333.20062    9.2599555   -2665.9242   -14212.866   -14212.866 
   10010    283.27578    7.8724977   -2664.5339   -14196.996   -14196.996 
   10020    314.52738    8.7410088   -2665.4047   -14369.188   -14369.188 
   10030    328.07224    9.1174331   -2665.7827   -14483.806   -14483.806 
   10040    258.80758    7.1925037   -2663.8543   -14419.991   -14419.991 
   10050    259.58895    7.2142185   -2663.8763   -14494.614   -14494.614 
   10060    313.80934    8.7210538   -2665.3867   -14566.029   -14566.029 
   10070    273.11162    7.5900262   -2664.2528   -14294.899   -14294.899 
   10080    261.13073    7.2570663   -2663.9179   -14094.454   -14094.454 
   10090    356.26195    9.9008514   -2666.5663   -14212.529   -14212.529 
   10100    359.99026    10.004465   -2666.6697   -14225.807   -14225.807 
   10110    278.94184    7.7520536   -2664.4131   -14171.155   -14171.155 
   10120    292.04055    8.1160788   -2664.7797   -14385.418   -14385.418 
   10130    298.24911    8.2886205   -2664.9536   -14519.842   -14519.842 
   10140    243.11388    6.7563612   -2663.4172   -14399.168   -14399.168 
   10150    297.37542    8.2643398   -2664.9273   -14415.308   -14415.308 
   10160    368.49441    10.240803   -2666.9071   -14381.455   -14381.455 
   10170    311.48676    8.6565071   -2665.3191   -14091.034   -14091.034 
   10180    281.09107    7.8117826   -2664.4733   -14051.879   -14051.879 
   10190    323.97964    9.0036958   -2665.6692   -14366.882   -14366.882 
   10200    276.99762    7.6980219   -2664.3615   -14471.232   -14471.232 
   10210    226.47987    6.2940865   -2662.9548   -14443.937   -14443.937 
   10220    290.30918    8.0679623   -2664.7321   -14551.748   -14551.748 
   10230    324.30793    9.0128194   -2665.6776   -14480.936   -14480.936 
   10240    296.37548    8.2365505   -2664.8986   -14219.585   -14219.585 
   10250    320.20476    8.8987884   -2665.5623   -14129.585   -14129.585 
   10260    341.21886    9.4827898   -2666.1472   -14115.244   -14115.244 
   10270    318.46759    8.8505109    -2665.513   -14068.532   -14068.532 
   10280     323.7554    8.9974642   -2665.6613   -14214.607   -14214.607 
   10290    304.01678    8.4489095   -2665.1133   -14430.715   -14430.715 
   10300    240.01379    6.6702068    -2663.332   -14484.854   -14484.854 
   10310    250.75632    6.9687517   -2663.6308   -14503.664   -14503.664 
   10320    322.14731    8.9527736   -2665.6179   -14551.604   -14551.604 
   10330    317.51264    8.8239719   -2665.4879   -14444.359   -14444.359 
   10340    280.05094    7.7828763   -2664.4452   -14320.144   -14320.144 
   10350    287.73083    7.9963076   -2664.6598   -14346.062   -14346.062 
   10360    294.28897    8.1785645   -2664.8422   -14347.866   -14347.866 
   10370    291.42529    8.0989802   -2664.7618   -14228.171   -14228.171 
   10380     316.1818    8.7869866     -2665.45   -14138.946   -14138.946 
   10390    353.25352    9.8172441   -2666.4815   -14185.628   -14185.628 
   10400    344.19041    9.5653719   -2666.2296   -14233.897   -14233.897 
   10410    290.11943    8.0626892   -2664.7255   -14235.597   -14235.597 
   10420    261.45096    7.2659657   -2663.9285    -14349.78    -14349.78 
   10430    272.46807    7.5721415   -2664.2359    -14538.19    -14538.19 
   10440    270.95158    7.5299968   -2664.1934   -14539.109   -14539.109 
[...]
   97500    290.48265    8.0727834   -2664.7352   -14266.109   -14266.109 
   97510    293.72246    8.1628208   -2664.8258   -14359.309   -14359.309 
   97520    311.38019    8.6535454   -2665.3178   -14472.784   -14472.784 
   97530    289.05726    8.0331704   -2664.6961   -14463.657   -14463.657 
   97540    281.15975    7.8136914   -2664.4762   -14427.032   -14427.032 
   97550    304.41946    8.4601002    -2665.124   -14393.209   -14393.209 
   97560    301.65374    8.3832384   -2665.0465   -14293.055   -14293.055 
   97570    298.95283    8.3081774    -2664.971   -14282.556   -14282.556 
   97580    311.74475     8.663677   -2665.3277   -14405.197   -14405.197 
   97590    290.77919    8.0810245   -2664.7445    -14450.42    -14450.42 
   97600     261.6623    7.2718389   -2663.9339   -14387.637   -14387.637 
   97610    289.49929    8.0454549   -2664.7085   -14374.974   -14374.974 
   97620    329.71378    9.1630529   -2665.8275   -14375.726   -14375.726 
   97630    316.35666     8.791846   -2665.4552   -14299.065   -14299.065 
   97640    298.46159    8.2945255    -2664.957   -14261.907   -14261.907 
   97650     313.3255    8.7076073   -2665.3713   -14312.374   -14312.374 
   97660    311.06832    8.6448783   -2665.3086   -14328.371   -14328.371 
   97670    286.77704     7.969801   -2664.6325   -14315.057   -14315.057 
   97680    290.09604    8.0620392    -2664.725     -14384.3     -14384.3 
   97690    305.70699    8.4958819     -2665.16   -14473.018   -14473.018 
   97700    286.27804    7.9559334   -2664.6191   -14446.041   -14446.041 
   97710    274.16331    7.6192536   -2664.2816   -14411.697   -14411.697 
   97720    302.45965    8.4056352   -2665.0694   -14461.193   -14461.193 
   97730    309.45762    8.6001155   -2665.2639   -14431.163   -14431.163 
   97740    292.82662    8.1379245   -2664.8003   -14303.223   -14303.223 
   97750    313.19073     8.703862   -2665.3671   -14253.908   -14253.908 
   97760    336.55814    9.3532642   -2666.0175   -14262.955   -14262.955 
   97770    317.60558    8.8265547   -2665.4899   -14269.329   -14269.329 
   97780    291.94805    8.1135083   -2664.7765   -14347.189   -14347.189 
   97790    278.44674    7.7382943   -2664.4015   -14461.872   -14461.872 
   97800    269.79282    7.4977938   -2664.1608   -14501.229   -14501.229 
   97810    278.23397    7.7323812   -2664.3953   -14470.234   -14470.234 
   97820    301.22387    8.3712918   -2665.0351   -14433.895   -14433.895 
   97830    303.37835    8.4311669   -2665.0945   -14354.685   -14354.685 
   97840    301.23709    8.3716593   -2665.0345   -14261.238   -14261.238 
   97850    316.95194    8.8083896   -2665.4719   -14228.637   -14228.637 
   97860    320.91955    8.9186532   -2665.5824    -14245.32    -14245.32 
   97870    303.88401    8.4452195   -2665.1083   -14279.951   -14279.951 
   97880    294.71312    8.1903521   -2664.8533   -14336.474   -14336.474 
   97890    299.44188    8.3217688   -2664.9854   -14384.314   -14384.314 
   97900    293.60903    8.1596683   -2664.8227   -14349.678   -14349.678 
   97910    298.68422    8.3007127   -2664.9638   -14337.872   -14337.872 
   97920     309.8824    8.6119205   -2665.2757   -14379.098   -14379.098 
   97930    297.86081    8.2778293   -2664.9412   -14380.391   -14380.391 
   97940    282.23969    7.8437037   -2664.5063   -14355.427   -14355.427 
   97950    296.03711    8.2271468   -2664.8906   -14412.929   -14412.929 
   97960    304.15276    8.4526885   -2665.1166   -14496.131   -14496.131 
   97970    285.52858    7.9351052    -2664.598   -14480.868   -14480.868 
   97980    284.10509    7.8955451   -2664.5583   -14393.267   -14393.267 
   97990    309.72903    8.6076581   -2665.2713   -14310.411   -14310.411 
   98000    322.93937    8.9747859   -2665.6384    -14254.97    -14254.97 
   98010    318.80372    8.8598521   -2665.5231   -14251.192   -14251.192 
   98020    309.56953    8.6032254   -2665.2669   -14298.495   -14298.495 
   98030    284.48328    7.9060553   -2664.5691   -14332.379   -14332.379 
   98040    274.29748    7.6229823   -2664.2858   -14378.569   -14378.569 
   98050    290.12596    8.0628707   -2664.7262   -14427.161   -14427.161 
   98060    306.48837    8.5175973   -2665.1809   -14425.427   -14425.427 
   98070    318.95661    8.8641011   -2665.5276   -14382.449   -14382.449 
   98080    317.04153    8.8108792   -2665.4747   -14319.604   -14319.604 
   98090    292.65191    8.1330691   -2664.7959   -14280.679   -14280.679 
   98100    287.79861    7.9981914   -2664.6611   -14354.049   -14354.049 
   98110    300.78808    8.3591807   -2665.0231   -14444.137   -14444.137 
   98120    286.82347    7.9710913   -2664.6342   -14398.629   -14398.629 
   98130    280.99568    7.8091316   -2664.4716   -14325.856   -14325.856 
   98140    310.91512    8.6406207   -2665.3044   -14326.074   -14326.074 
   98150    317.78885    8.8316479   -2665.4955    -14307.05    -14307.05 
   98160    298.47556    8.2949138   -2664.9576   -14289.264   -14289.264 
   98170    303.98908    8.4481396   -2665.1117   -14371.675   -14371.675 
   98180    298.77885    8.3033424   -2664.9672   -14414.363   -14414.363 
   98190    272.65095    7.5772238   -2664.2394   -14337.325   -14337.325 
   98200    296.69046    8.2453041   -2664.9084   -14322.303   -14322.303 
   98210    328.50392    9.1294299    -2665.794   -14350.275   -14350.275 
   98220     305.3252    8.4852718   -2665.1483   -14318.402   -14318.402 
   98230    293.22773    8.1490718   -2664.8115   -14345.862   -14345.862 
   98240    317.94281    8.8359268   -2665.5002   -14442.092   -14442.092 
   98250    303.46511    8.4335779   -2665.0973   -14428.686   -14428.686 
   98260    269.40934    7.4871363   -2664.1495   -14391.321   -14391.321 
   98270    277.81097    7.7206256   -2664.3837   -14439.355   -14439.355 
   98280    301.94142    8.3912333   -2665.0549   -14427.085   -14427.085 
   98290    309.55872    8.6029251   -2665.2663   -14297.522   -14297.522 
   98300    311.05411    8.6444834   -2665.3077   -14204.695   -14204.695 
   98310     313.4654    8.7114954    -2665.375   -14240.211   -14240.211 
   98320    307.45906    8.5445734    -2665.208   -14322.353   -14322.353 
   98330    295.87367    8.2226047   -2664.8856   -14359.066   -14359.066 
   98340    296.10666    8.2290799   -2664.8922   -14375.838   -14375.838 
   98350    300.78825    8.3591855   -2665.0229   -14420.755   -14420.755 
   98360    284.73039    7.9129227   -2664.5763   -14459.738   -14459.738 
   98370    266.70907    7.4120933   -2664.0746    -14454.86    -14454.86 
   98380    283.73956    7.8853865   -2664.5484   -14381.541   -14381.541 
   98390    313.84261    8.7219784   -2665.3857   -14245.574   -14245.574 
   98400    325.92099    9.0576477   -2665.7209   -14177.276   -14177.276 
   98410    331.31196    9.2074679   -2665.8713   -14263.176   -14263.176 
   98420    310.33553    8.6245134   -2665.2881   -14314.941   -14314.941 
   98430    279.68509     7.772709   -2664.4349   -14281.417   -14281.417 
   98440    300.64363    8.3551664   -2665.0184   -14354.975   -14354.975 
   98450    323.57348    8.9924082   -2665.6572   -14480.076   -14480.076 
   98460    283.04701    7.8661401   -2664.5288   -14474.817   -14474.817 
   98470    271.06597    7.5331757   -2664.1954   -14485.511   -14485.511 
   98480    304.84732    8.4719908   -2665.1365   -14517.564   -14517.564 
   98490    286.46433    7.9611106   -2664.6245   -14389.271   -14389.271 
   98500    265.58437    7.3808371   -2664.0425   -14283.449   -14283.449 
   98510    315.89729    8.7790799   -2665.4433   -14379.445   -14379.445 
   98520    327.14878    9.0917692   -2665.7562   -14368.316   -14368.316 
   98530    288.58553    8.0200606   -2664.6818   -14228.574   -14228.574 
   98540    313.03168    8.6994418   -2665.3628    -14290.96    -14290.96 
   98550    334.06305    9.2839233   -2665.9488   -14395.665   -14395.665 
   98560    286.52518    7.9628015   -2664.6251   -14323.235   -14323.235 
   98570    280.07564    7.7835629   -2664.4458   -14308.941   -14308.941 
   98580    317.83042    8.8328033   -2665.4974   -14384.936   -14384.936 
   98590    301.19471    8.3704814   -2665.0339   -14333.332   -14333.332 
   98600      278.049    7.7272405   -2664.3895   -14286.768   -14286.768 
   98610    300.61276    8.3543086   -2665.0181   -14375.826   -14375.826 
   98620    304.26456    8.4557954   -2665.1198   -14416.773   -14416.773 
   98630    280.19652    7.7869222   -2664.4491   -14356.054   -14356.054 
   98640    302.16147    8.3973487   -2665.0608   -14391.628   -14391.628 
   98650     317.2123    8.8156253   -2665.4801   -14404.868   -14404.868 
   98660    284.30282    7.9010402   -2664.5636    -14295.44    -14295.44 
   98670    284.69999    7.9120779   -2664.5747   -14290.367   -14290.367 
   98680    317.14533    8.8137641   -2665.4778   -14370.886   -14370.886 
   98690    318.18734    8.8427226   -2665.5063   -14319.058   -14319.058 
   98700    303.93784    8.4467156   -2665.1095   -14207.592   -14207.592 
   98710    311.24966     8.649918   -2665.3136    -14234.95    -14234.95 
   98720    304.47727    8.4617067   -2665.1253   -14318.433   -14318.433 
   98730     285.8195    7.9431901   -2664.6061   -14407.448   -14407.448 
   98740    283.76064    7.8859725   -2664.5495   -14528.355   -14528.355 
   98750    275.77242    7.6639724   -2664.3274   -14559.778   -14559.778 
   98760    265.38417    7.3752733   -2664.0377   -14447.214   -14447.214 
   98770    296.09839    8.2288501   -2664.8918   -14336.211   -14336.211 
   98780    342.31901    9.5133642   -2666.1776   -14260.928   -14260.928 
   98790    345.09302    9.5904563   -2666.2543   -14155.572   -14155.572 
   98800    321.12076     8.924245   -2665.5873   -14110.519   -14110.519 
   98810    306.07356    8.5060691   -2665.1696   -14223.181   -14223.181 
   98820    285.15839    7.9248172   -2664.5881   -14369.808   -14369.808 
   98830    266.77491     7.413923   -2664.0766   -14452.524   -14452.524 
   98840    279.61937    7.7708826   -2664.4341    -14512.74    -14512.74 
   98850    297.57993    8.2700233   -2664.9339   -14521.538   -14521.538 
   98860     289.8112     8.054123   -2664.7173   -14428.991   -14428.991 
   98870    286.26895    7.9556808   -2664.6185   -14350.539   -14350.539 
   98880    304.84422    8.4719047   -2665.1354   -14343.039   -14343.039 
   98890    313.07919    8.7007624   -2665.3645   -14292.274   -14292.274 
   98900    302.96801    8.4197632   -2665.0826   -14197.426   -14197.426 
   98910    313.68554    8.7176132   -2665.3806   -14215.148   -14215.148 
   98920    333.52473    9.2689628   -2665.9333   -14314.539   -14314.539 
   98930     308.8435    8.5830484   -2665.2463    -14325.49    -14325.49 
   98940    285.94231    7.9466031   -2664.6092   -14369.289   -14369.289 
   98950    293.13158    8.1463995   -2664.8102   -14486.027   -14486.027 
   98960    282.76495    7.8583014   -2664.5218   -14495.721   -14495.721 
   98970     266.3633    7.4024842   -2664.0648   -14401.482   -14401.482 
   98980    295.21176    8.2042096   -2664.8675   -14364.714   -14364.714 
   98990    322.60986    8.9656285     -2665.63   -14325.492   -14325.492 
   99000    305.12898    8.4798186   -2665.1427   -14228.416   -14228.416 
   99010     304.1564    8.4527896   -2665.1157   -14244.957   -14244.957 
   99020    321.52321    8.9354293   -2665.5995   -14341.934   -14341.934 
   99030    304.65876    8.4667506   -2665.1302   -14385.869   -14385.869 
   99040    280.05483    7.7829845   -2664.4459   -14447.406   -14447.406 
   99050    274.43219    7.6267262   -2664.2901   -14501.627   -14501.627 
   99060    273.95881    7.6135705   -2664.2764    -14412.23    -14412.23 
   99070    299.60871    8.3264049   -2664.9895   -14287.683   -14287.683 
   99080    334.05069    9.2835796   -2665.9479   -14231.361   -14231.361 
   99090    323.72733    8.9966838     -2665.66   -14179.652   -14179.652 
   99100    313.72909    8.7188236   -2665.3815    -14222.05    -14222.05 
   99110    327.27168    9.0951848   -2665.7598   -14384.961   -14384.961 
   99120    287.17097    7.9807488   -2664.6441   -14436.848   -14436.848 
   99130    247.12642    6.8678734   -2663.5297   -14449.434   -14449.434 
   99140    272.38776    7.5699095   -2664.2335   -14530.684   -14530.684 
   99150    292.25834    8.1221315   -2664.7859   -14474.246   -14474.246 
   99160    293.89243    8.1675443   -2664.8299   -14253.914   -14253.914 
   99170    333.03221    9.2552751    -2665.919   -14142.714   -14142.714 
   99180     350.1199    9.7301582   -2666.3948   -14176.988   -14176.988 
   99190    306.22019    8.5101441   -2665.1728   -14222.772   -14222.772 
   99200    287.11279    7.9791317    -2664.642   -14329.957   -14329.957 
   99210    289.38017    8.0421443    -2664.706   -14429.913   -14429.913 
   99220     271.9374    7.5573937   -2664.2202   -14438.154   -14438.154 
   99230    279.41376    7.7651685   -2664.4281   -14468.438   -14468.438 
   99240    303.40845    8.4320032   -2665.0962   -14490.027   -14490.027 
   99250    291.84918    8.1107605   -2664.7736   -14366.895   -14366.895 
   99260    300.10765    8.3402709   -2665.0029   -14262.921   -14262.921 
   99270    335.74961    9.3307944   -2665.9953   -14269.673   -14269.673 
   99280    321.31346    8.9296003   -2665.5932   -14245.482   -14245.482 
   99290    295.03538    8.1993079   -2664.8618   -14254.927   -14254.927 
   99300    303.97953    8.4478743   -2665.1117   -14365.082   -14365.082 
   99310    295.30697    8.2068556   -2664.8705   -14434.779   -14434.779 
   99320    275.03737    7.6435446   -2664.3061   -14446.324   -14446.324 
   99330    288.50756    8.0178937   -2664.6814       -14472       -14472 
   99340    297.92893    8.2797224   -2664.9434   -14423.234   -14423.234 
   99350    293.65974    8.1610776   -2664.8239   -14295.956   -14295.956 
   99360    311.94058    8.6691191   -2665.3325   -14232.982   -14232.982 
   99370    326.22973    9.0662279   -2665.7303   -14256.527   -14256.527 
   99380    306.54728    8.5192345   -2665.1825   -14310.688   -14310.688 
   99390    289.29799    8.0398606   -2664.7026   -14410.546   -14410.546 
   99400    296.64043    8.2439137   -2664.9076   -14529.081   -14529.081 
   99410    287.93755    8.0020525   -2664.6656   -14511.309   -14511.309 
   99420    269.69976    7.4952074   -2664.1577   -14371.291   -14371.291 
   99430    290.38491    8.0700672   -2664.7332   -14305.218   -14305.218 
   99440    318.77991    8.8591906   -2665.5234   -14299.449   -14299.449 
   99450    308.09608     8.562277   -2665.2255   -14226.484   -14226.484 
   99460    302.26666     8.400272   -2665.0629   -14175.275   -14175.275 
   99470    325.99731    9.0597688   -2665.7236   -14221.285   -14221.285 
   99480     324.3426    9.0137829   -2665.6778   -14274.463   -14274.463 
   99490    292.06632     8.116795   -2664.7793   -14321.031   -14321.031 
   99500     295.2514    8.2053113   -2664.8685   -14457.859   -14457.859 
   99510    302.96303    8.4196247   -2665.0839   -14535.453   -14535.453 
   99520    270.15007    7.5077219   -2664.1705   -14446.382   -14446.382 
   99530    258.11381    7.1732231   -2663.8356   -14393.829   -14393.829 
   99540     288.7101    8.0235226   -2664.6871   -14429.742   -14429.742 
   99550    311.76539    8.6642505   -2665.3278   -14380.841   -14380.841 
   99560    319.82265    8.8881693   -2665.5514   -14253.315   -14253.315 
   99570     326.6233    9.0771657   -2665.7408   -14212.788   -14212.788 
   99580    313.10138     8.701379    -2665.365   -14266.098   -14266.098 
   99590    283.79845    7.8870233   -2664.5497   -14330.196   -14330.196 
   99600     283.8489    7.8884254   -2664.5513     -14404.8     -14404.8 
   99610     304.9752    8.4755447   -2665.1394   -14443.548   -14443.548 
   99620    306.86396    8.5280352   -2665.1914   -14388.038   -14388.038 
   99630    303.43949    8.4328659   -2665.0961   -14344.963   -14344.963 
   99640    304.53429    8.4632914   -2665.1268   -14361.802   -14361.802 
   99650    298.66732    8.3002429   -2664.9635   -14357.812   -14357.812 
   99660    294.38856    8.1813322   -2664.8445   -14346.467   -14346.467 
   99670    293.53107    8.1575018    -2664.821   -14369.804   -14369.804 
   99680    285.08211    7.9226974   -2664.5858   -14372.579   -14372.579 
   99690    284.17386    7.8974562   -2664.5604   -14352.086   -14352.086 
   99700    299.54817    8.3247227    -2664.988    -14351.81    -14351.81 
   99710    314.49483    8.7401042   -2665.4037   -14336.318   -14336.318 
   99720    316.08451     8.784283   -2665.4475   -14262.923   -14262.923 
   99730     320.4777    8.9063736   -2665.5697   -14241.639   -14241.639 
   99740    320.19524    8.8985238   -2665.5624    -14326.11    -14326.11 
   99750    292.63091    8.1324856   -2664.7958   -14411.955   -14411.955 
   99760    265.65542    7.3828115   -2664.0454   -14457.335   -14457.335 
   99770    272.89887    7.5841137   -2664.2473   -14491.936   -14491.936 
   99780    288.86521    8.0278333   -2664.6914   -14465.962   -14465.962 
   99790    293.59571    8.1592981   -2664.8223   -14371.935   -14371.935 
   99800    308.84871    8.5831933   -2665.2464   -14321.778   -14321.778 
   99810    329.07914    9.1454157   -2665.8093   -14329.659   -14329.659 
   99820    321.51029    8.9350704   -2665.5987   -14297.245   -14297.245 
   99830    297.20262    8.2595376   -2664.9224   -14268.859   -14268.859 
   99840    290.45842    8.0721101   -2664.7352   -14340.207   -14340.207 
   99850    296.09219    8.2286777    -2664.892   -14419.296   -14419.296 
   99860     301.7585    8.3861497   -2665.0496   -14394.078   -14394.078 
   99870    302.26552    8.4002404   -2665.0635   -14308.934   -14308.934 
   99880    306.28698    8.5120003   -2665.1752   -14296.298   -14296.298 
   99890    310.97446    8.6422698    -2665.306    -14387.41    -14387.41 
   99900    292.49219    8.1286304   -2664.7922   -14482.613   -14482.613 
   99910    263.01737    7.3094975   -2663.9721    -14496.84    -14496.84 
   99920    265.68831    7.3837256   -2664.0466   -14452.605   -14452.605 
   99930    291.72375    8.1072747   -2664.7709   -14378.812   -14378.812 
   99940    308.80518    8.5819835   -2665.2451   -14297.201   -14297.201 
   99950     332.8901    9.2513258   -2665.9148    -14272.38    -14272.38 
   99960    341.84718    9.5002514   -2666.1645   -14250.856   -14250.856 
   99970    307.22867    8.5381708   -2665.2011   -14198.062   -14198.062 
   99980    289.53973    8.0465786   -2664.7092   -14241.771   -14241.771 
   99990    301.13441    8.3688057   -2665.0327   -14342.429   -14342.429 
  100000    290.77237    8.0808349   -2664.7442   -14373.676   -14373.676 
Loop time of 20.1201 on 1 procs for 100000 steps with 216 atoms

Performance: 214.710 ns/day, 0.112 hours/ns, 4970.148 timesteps/s
99.3% CPU use with 1 MPI tasks x no OpenMP threads

MPI task timing breakdown:
Section |  min time  |  avg time  |  max time  |%varavg| %total
---------------------------------------------------------------
Pair    | 16.512     | 16.512     | 16.512     |   0.0 | 82.07
Neigh   | 1.8341     | 1.8341     | 1.8341     |   0.0 |  9.12
Comm    | 0.18788    | 0.18788    | 0.18788    |   0.0 |  0.93
Output  | 1.3969     | 1.3969     | 1.3969     |   0.0 |  6.94
Modify  | 0.13214    | 0.13214    | 0.13214    |   0.0 |  0.66
Other   |            | 0.05726    |            |       |  0.28

Nlocal:    216 ave 216 max 216 min
Histogram: 1 0 0 0 0 0 0 0 0 0
Nghost:    404 ave 404 max 404 min
Histogram: 1 0 0 0 0 0 0 0 0 0
Neighs:    0 ave 0 max 0 min
Histogram: 1 0 0 0 0 0 0 0 0 0
FullNghs:  2332 ave 2332 max 2332 min
Histogram: 1 0 0 0 0 0 0 0 0 0

Total # of neighbors = 2332
Ave neighs/atom = 10.7963
Neighbor list builds = 10000
Dangerous builds not checked

Total wall time: 0:00:20
