
# Define the lattice
variable	lattice_constant equal 6.2045
lattice		diamond ${lattice_constant}
lattice		diamond 6.2045
Lattice spacing in x,y,z = 6.2045 6.2045 6.2045

# Define region
# multiples of lattice spacing
region 		simbox block 0 5 0 5 0 5

# Create Atoms
create_box 	1 simbox
Created orthogonal box = (0 0 0) to (31.0225 31.0225 31.0225)
  1 by 1 by 1 MPI processor grid
create_atoms 	1 box
Created 1000 atoms
  Time spent = 0.000431061 secs
mass		1 18.015

velocity	all create 2000.0 97287

# Define Interatomic Potential
pair_style	sw
pair_coeff	* * mW.sw mW
Reading potential file mW.sw with DATE: 2019-02-27

neighbor 	2.0 bin
neigh_modify	delay 10 check no

# Pressure computations
compute		total_press all pressure thermo_temp
compute		peratom all stress/atom NULL
compute		p all reduce sum c_peratom[1] c_peratom[2] c_peratom[3]
variable	press equal -(c_p[1]+c_p[2]+c_p[3])/(3*vol)

# Density computations
variable	total_mass equal mass(all)
variable	v equal vol
print 		${total_mass}
print 		18014.9999999997
18014.9999999997
print		$v
print		29855.9145926406
29855.9145926406

variable 	density equal v_total_mass/(v_v*18.015)
print 		${density}
print 		0.0334942008524663
0.0334942008524663


# Run equilibration
thermo_style	custom step temp ke pe c_total_press v_press
thermo		10
dump		1 all atom 10 ${simname}.dump
dump		1 all atom 10 mW_liquid_6.2045_1000K.dump

fix 		1 all nve
#temp 300.0 300.0 100.0 iso 0.0 0.0 1000.0
timestep	0.0005
run		10000
Neighbor list info ...
  update every 1 steps, delay 10 steps, check no
  max neighbors/atom: 2000, page size: 100000
  master list distance cutoff = 6.3065
  ghost atom cutoff = 6.3065
  binsize = 3.15325, bins = 10 10 10
  1 neighbor lists, perpetual/occasional/extra = 1 0 0
  (1) pair sw, perpetual
      attributes: full, newton on
      pair build: full/bin/atomonly
      stencil: full/bin/3d
      bin: standard
Per MPI rank memory allocation (min/avg/max) = 4.438 | 4.438 | 4.438 Mbytes
Step Temp KinEng PotEng c_total_press v_press 
       0         2000    258.26177   -12377.971    6775.7341    6775.7341 
      10    1191.7811    153.89574   -12273.407     8034.666     8034.666 
      20    586.21545     75.69852   -12195.121    7656.7515    7656.7515 
      30    1070.5381    138.23953   -12257.854    4500.8595    4500.8595 
      40    904.01975    116.73687   -12236.304    4056.5473    4056.5473 
      50    471.81705    60.926153   -12180.363    5264.7442    5264.7442 
      60    957.54121    123.64814   -12243.215    4632.6144    4632.6144 
      70    1199.8667    154.93985   -12274.545    5021.7829    5021.7829 
      80    836.00176    107.95365   -12227.419    7117.7185    7117.7185 
      90    1109.2563    143.23925   -12262.779    7009.2512    7009.2512 
     100    1367.0973    176.53448   -12296.154    6090.0427    6090.0427 
     110    880.15203    113.65481   -12233.146    6683.4419    6683.4419 
     120    807.48851    104.27171   -12223.765    6234.5205    6234.5205 
     130    1153.6037    148.96587   -12268.567    5015.8658    5015.8658 
     140    942.16589    121.66271    -12241.19    5730.3401    5730.3401 
     150    811.94249    104.84685   -12224.336    6334.0207    6334.0207 
     160    1125.9603    145.39625   -12264.979    5440.2606    5440.2606 
     170    1035.1835    133.67416   -12253.228      5642.72      5642.72 
     180    801.70819    103.52529   -12223.008    6620.4059    6620.4059 
     190    1076.7482    139.04144   -12258.597    6135.3995    6135.3995 
     200    1197.2733    154.60496   -12274.187    5663.9719    5663.9719 
     210    899.50819    116.15429   -12235.659    6339.3584    6339.3584 
     220     901.6658     116.4329   -12235.953    6267.1969    6267.1969 
     230    1093.3831    141.18953   -12260.761    5593.5998    5593.5998 
     240      983.458     126.9948   -12246.528    5871.6905    5871.6905 
     250    907.83076    117.22899   -12236.744    6149.0473    6149.0473 
     260    1038.7113     134.1297   -12253.687    5729.4398    5729.4398 
     270     1001.755     129.3575     -12248.9    5883.2287    5883.2287 
     280    932.74164    120.44575    -12239.96    6405.5121    6405.5121 
     290    1084.7919    140.08013    -12259.63    6129.1651    6129.1651 
     300    1127.1935    145.55549   -12265.117     5869.487     5869.487 
     310    945.80164     122.1322   -12241.655    6263.8059    6263.8059 
     320    914.41784    118.07958   -12237.601    6342.7462    6342.7462 
     330    1050.7077    135.67881   -12255.235    5910.1019    5910.1019 
     340    1021.4683    131.90311   -12251.449    5802.8368    5802.8368 
     350    909.26582     117.4143   -12236.937    5820.4172    5820.4172 
     360    943.43552    121.82666   -12241.364    5419.4914    5419.4914 
     370    990.81615    127.94497   -12247.493    5267.6025    5267.6025 
     380    946.20544    122.18435   -12241.717    5704.3107    5704.3107 
     390    959.14602    123.85537   -12243.385    6013.2903    6013.2903 
     400    1054.2597    136.13749   -12255.685    6152.3632    6152.3632 
     410    1080.4149    139.51493   -12259.056    6629.4945    6629.4945 
     420    1077.7486    139.17063   -12258.708     6904.481     6904.481 
     430    1079.3133    139.37268   -12258.918    6562.6386    6562.6386 
     440    1012.0509    130.68703   -12250.227    6097.5765    6097.5765 
     450    925.14902    119.46531   -12238.998    5740.3208    5740.3208 
     460    896.51721    115.76806   -12235.305    5374.2862    5374.2862 
     470    894.07647    115.45289   -12234.987    5264.2125    5264.2125 
     480    939.26169    121.28769   -12240.821    5479.3864    5479.3864 
     490     1022.882    132.08566   -12251.635    5664.4752    5664.4752 
     500    1006.1482    129.92481   -12249.463    6073.8702    6073.8702 
     510    995.32374    128.52704   -12248.054    6570.3351    6570.3351 
     520    1089.5627    140.69619   -12260.244    6607.1388    6607.1388 
     530    1090.9459    140.87481   -12260.426    6361.6106    6361.6106 
     540    965.22225       124.64   -12244.169    6180.7594    6180.7594 
     550    927.35432    119.75008    -12239.28    5959.7041    5959.7041 
     560    986.25641    127.35616     -12246.9    5733.0181    5733.0181 
     570    1005.7541    129.87391   -12249.414     5716.406     5716.406 
     580    1001.1487    129.27922   -12248.816    5811.6485    5811.6485 
     590    1006.7983    130.00876   -12249.551    5848.2827    5848.2827 
     600    982.79341    126.90898   -12246.446    5951.4405    5951.4405 
     610    972.17832    125.53825   -12245.072    6182.1128    6182.1128 
     620    1012.5512    130.75163   -12250.291    6355.1095    6355.1095 
     630    1044.6072    134.89106   -12254.433    6309.9371    6309.9371 
     640    1043.2744    134.71895    -12254.26    6143.4077    6143.4077 
     650    1009.3248    130.33501   -12249.877    6058.6736    6058.6736 
     660    950.06887    122.68323   -12242.213    6041.0159    6041.0159 
     670    973.56207    125.71693   -12245.253    5791.8711    5791.8711 
     680    1015.3891    131.11809   -12250.668    5584.1173    5584.1173 
     690     954.1831    123.21451   -12242.752    5766.1912    5766.1912 
     700    913.02242    117.89939   -12237.427    5961.0952    5961.0952 
     710    988.40063    127.63305   -12247.176    5984.0997    5984.0997 
     720    1031.4654    133.19404   -12252.741    6068.0991    6068.0991 
     730    999.88061    129.11547   -12248.647    6156.2317    6156.2317 
     740    1019.2377    131.61507   -12251.155     6021.818     6021.818 
     750    1022.2273    132.00112   -12251.546    5972.9153    5972.9153 
     760    964.58062    124.55715   -12244.089    6113.3329    6113.3329 
     770    970.21849    125.28517   -12244.819    6110.3922    6110.3922 
     780    1022.8097    132.07632   -12251.623    5990.7093    5990.7093 
     790    1009.9012    130.40943   -12249.947    6015.7588    6015.7588 
     800    1001.9714    129.38546   -12248.921    5953.5097    5953.5097 
     810    1016.7649    131.29576   -12250.843    5889.2971    5889.2971 
     820    952.48058    122.99466   -12242.528    6212.5997    6212.5997 
     830    952.30004    122.97135   -12242.494    6478.0446    6478.0446 
     840    1094.0101     141.2705   -12260.824      6283.57      6283.57 
     850    1088.4685     140.5549   -12260.108    6207.8937    6207.8937 
     860    948.45255    122.47452   -12241.997     6173.141     6173.141 
     870    957.35641    123.62428    -12243.16    5724.6593    5724.6593 
     880    1001.3281    129.30238   -12248.853    5400.3397    5400.3397 
     890    936.46636    120.92673   -12240.459    5535.0043    5535.0043 
     900     924.8851    119.43123   -12238.962     5674.665     5674.665 
     910    982.75833    126.90445   -12246.453    5868.0175    5868.0175 
     920    965.80137    124.71479   -12244.246    6343.5538    6343.5538 
     930    1025.1509    132.37865   -12251.909    6480.0045    6480.0045 
     940     1145.983     147.9818   -12267.544    6208.0436    6208.0436 
     950    1043.0654    134.69196   -12254.233    6291.0721    6291.0721 
     960     917.1319    118.43005   -12237.945    6328.0003    6328.0003 
     970    1011.2019    130.57739   -12250.123    5927.1894    5927.1894 
     980    1048.4669    135.38946   -12254.943    5827.4144    5827.4144 
     990    942.38356    121.69082   -12241.216    6042.4872    6042.4872 
    1000      952.616    123.01215   -12242.548    5827.7918    5827.7918 
    1010    993.43587    128.28325   -12247.835    5577.5608    5577.5608 
    1020    927.34988    119.74951   -12239.277    5793.3099    5793.3099 
    1030    962.35533     124.2698   -12243.802     5927.196     5927.196 
    1040    1060.2264    136.90797   -12256.461    5985.7678    5985.7678 
    1050    1026.7247    132.58187   -12252.117    6344.5954    6344.5954 
    1060    1016.0224    131.19987   -12250.733     6511.527     6511.527 
    1070    1050.3366    135.63089    -12255.18    6367.1568    6367.1568 
    1080    999.81453    129.10693    -12248.64    6314.3817    6314.3817 
    1090    1006.0839     129.9165   -12249.449     6045.071     6045.071 
    1100    1055.9502    136.35578   -12255.913    5541.9636    5541.9636 
    1110    922.74122    119.15439   -12238.695     5438.696     5438.696 
    1120    784.44955    101.29666   -12220.804    5690.9886    5690.9886 
    1130    949.60731    122.62363   -12242.164    5695.0245    5695.0245 
    1140    1107.5967    143.02495   -12262.587    5893.7772    5893.7772 
    1150    1039.9449    134.28901   -12253.822     6416.262     6416.262 
    1160    1013.8749    130.92257   -12250.454    6500.7996    6500.7996 
    1170    1057.3746    136.53972   -12256.089    6216.1598    6216.1598 
    1180    1007.7901    130.13683   -12249.676    6140.7213    6140.7213 
    1190    953.13913     123.0797   -12242.612    6079.9762    6079.9762 
    1200    961.51746     124.1616   -12243.704     5844.305     5844.305 
    1210    951.99707    122.93222    -12242.47     5758.197     5758.197 
    1220    965.24486    124.64292   -12244.174    5923.3814    5923.3814 
    1230    1058.2785    136.65644   -12256.198    6159.6798    6159.6798 
    1240    1114.8199    143.95768   -12263.509    6364.7894    6364.7894 
    1250    1044.5728    134.88661   -12254.426    6494.6545    6494.6545 
    1260    967.93276    124.99001   -12244.521    6340.3897    6340.3897 
    1270    978.35157     126.3354   -12245.873    5932.1943    5932.1943 
    1280    1001.1685    129.28177   -12248.828    5611.1214    5611.1214 
    1290    943.91908    121.88911   -12241.427    5584.3941    5584.3941 
    1300    890.84984    115.03623   -12234.564    5622.7623    5622.7623 
    1310    943.76651     121.8694   -12241.407    5531.7275    5531.7275 
    1320    1014.3865    130.98863   -12250.534    5678.1572    5678.1572 
    1330    1017.8532    131.43629   -12250.977    6134.4372    6134.4372 
    1340    1001.8508    129.36988   -12248.903    6472.8686    6472.8686 
    1350    1038.2798    134.07399   -12253.616    6375.8969    6375.8969 
    1360    1039.0906    134.17869   -12253.726    6157.1138    6157.1138 
    1370    969.39936     125.1794   -12244.711    6108.7905    6108.7905 
    1380    967.94315    124.99136   -12244.524    6016.6403    6016.6403 
    1390    1031.1633    133.15503   -12252.698    5909.9105    5909.9105 
    1400    1045.3363     134.9852   -12254.532     5983.959     5983.959 
    1410    984.43056    127.12039   -12246.652    6243.7834    6243.7834 
    1420    988.51527    127.64785    -12247.18    6314.7598    6314.7598 
    1430    1047.1345    135.21741   -12254.767    6081.8888    6081.8888 
    1440    991.24982    128.00097   -12247.546    5827.6409    5827.6409 
    1450    869.67073    112.30135   -12231.827    5644.0786    5644.0786 
    1460    879.94717    113.62836   -12233.156    5492.4062    5492.4062 
    1470    1009.6192    130.37303   -12249.919    5490.7522    5490.7522 
    1480    1069.8686    138.15308   -12257.701    5884.3975    5884.3975 
    1490    1031.6255    133.21471   -12252.748    6518.9633    6518.9633 
    1500    1041.9106    134.54284   -12254.077    6770.7695    6770.7695 
    1510    1094.6302    141.35057   -12260.899    6441.4919    6441.4919 
    1520    1049.1684    135.48005   -12255.026    6023.2691    6023.2691 
    1530    925.15178    119.46567   -12238.997    5749.2356    5749.2356 
    1540    874.20688    112.88711   -12232.414    5544.3159    5544.3159 
    1550    936.28658    120.90352   -12240.444    5521.6291    5521.6291 
    1560    989.43833    127.76705   -12247.305    5866.3623    5866.3623 
    1570    1042.1874    134.57858   -12254.116    6226.7545    6226.7545 
    1580    1100.7365    142.13908   -12261.686    6314.7555    6314.7555 
    1590    1063.9775    137.39236    -12256.94    6264.6679    6264.6679 
    1600    935.75801    120.83526   -12240.364    6168.1035    6168.1035 
    1610    901.90609    116.46393   -12235.992    5888.5547    5888.5547 
    1620    975.27224    125.93777   -12245.482    5556.7502    5556.7502 
    1630    998.93499    128.99336   -12248.536    5505.9498    5505.9498 
    1640    975.05176     125.9093   -12245.445    5716.7004    5716.7004 
    1650    978.17663    126.31281   -12245.846    6077.7241    6077.7241 
    1660    1036.0217     133.7824   -12253.322    6332.2038    6332.2038 
    1670    1085.8457    140.21621   -12259.762    6432.4917    6432.4917 
    1680    1061.9621    137.13211   -12256.673    6461.2835    6461.2835 
    1690    1009.0621    130.30108   -12249.838    6286.0748    6286.0748 
    1700    970.90872     125.3743   -12244.914    5899.7737    5899.7737 
    1710    922.60473    119.13677   -12238.674    5530.2261    5530.2261 
    1720    893.03622    115.31856    -12234.85    5298.3533    5298.3533 
    1730    931.71358      120.313   -12239.852    5154.3205    5154.3205 
    1740    960.92541    124.08515   -12243.632    5360.4544    5360.4544 
    1750    924.35864    119.36325   -12238.889    6005.7852    6005.7852 
    1760    1014.2134    130.96627   -12250.495     6471.928     6471.928 
    1770    1194.5293    154.25063   -12273.811    6506.5854    6506.5854 
    1780    1150.4129    148.55384   -12268.105    6669.2396    6669.2396 
    1790    974.50232    125.83835   -12245.358    6792.7541    6792.7541 
    1800    975.69411    125.99224   -12245.525    6353.6863    6353.6863 
    1810    1046.2062    135.09753   -12254.648    5821.6017    5821.6017 
    1820    1004.1567    129.66764   -12249.207    5609.6912    5609.6912 
    1830    940.49843    121.44739   -12240.982    5485.0491    5485.0491 
    1840    918.58879    118.61818   -12238.156    5450.9788    5450.9788 
    1850    917.72369    118.50647    -12238.04    5628.4472    5628.4472 
    1860    963.14775    124.37212    -12243.91    5841.6242    5841.6242 
    1870    1016.3947    131.24795   -12250.791    6061.1903    6061.1903 
    1880    1032.5163    133.32974   -12252.866     6245.583     6245.583 
    1890    1061.6418    137.09074   -12256.634    6202.1632    6202.1632 
    1900     1041.334    134.46839   -12254.013    6159.0819    6159.0819 
    1910    969.37216    125.17588   -12244.704    6170.1379    6170.1379 
    1920    984.55956    127.13705   -12246.677    5889.3461    5889.3461 
    1930    985.68652    127.28257   -12246.832    5670.2867    5670.2867 
    1940    893.62936    115.39515   -12234.924    5791.2422    5791.2422 
    1950    907.35302     117.1673   -12236.693    5830.2236    5830.2236 
    1960    1040.6307    134.37756   -12253.931    5717.7565    5717.7565 
    1970    1039.2893    134.20434   -12253.746    6032.0807    6032.0807 
    1980    997.98022    128.87007   -12248.395    6411.0297    6411.0297 
    1990    1071.1448    138.31787   -12257.865    6312.6249    6312.6249 
    2000    1064.2663    137.42965   -12256.979    6229.2731    6229.2731 
    2010    956.50459    123.51428   -12243.038    6357.2288    6357.2288 
    2020    986.88053    127.43676   -12246.972    6071.5723    6071.5723 
    2030    1044.5563    134.88448   -12254.439    5612.6875    5612.6875 
    2040    950.46304    122.73413   -12242.267     5600.939     5600.939 
    2050    898.96873    116.08463   -12235.609    5755.8217    5755.8217 
    2060    985.42063    127.24824   -12246.788    5838.9849    5838.9849 
    2070    1056.1485    136.38139   -12255.929    6034.7024    6034.7024 
    2080    1036.9594    133.90349   -12253.439    6324.7352    6324.7352 
    2090    1035.0152    133.65243   -12253.192    6309.9602    6309.9602 
    2100    1030.1702    133.02679   -12252.568    6113.2558    6113.2558 
    2110    996.10254     128.6276   -12248.166    5894.8739    5894.8739 
    2120    957.84221    123.68701   -12243.225    5683.8107    5683.8107 
    2130    921.18932    118.95399   -12238.489    5606.0764    5606.0764 
    2140    922.06099    119.06655     -12238.6    5692.6142    5692.6142 
    2150    975.95339    126.02572   -12245.562    5823.3249    5823.3249 
    2160    1042.6292    134.63563   -12254.181    5946.5154    5946.5154 
    2170    1037.7852    134.01012   -12253.553    6148.4588    6148.4588 
    2180    989.88304    127.82447   -12247.356    6288.8346    6288.8346 
    2190    1007.2718     130.0699   -12249.605    6211.3312    6211.3312 
    2200    1054.2572    136.13717   -12255.682    6150.5916    6150.5916 
    2210      1037.57    133.98233   -12253.523    6226.4728    6226.4728 
    2220    993.74022    128.32255   -12247.857    6139.2319    6139.2319 
    2230    981.09362    126.68949   -12246.231     5832.848     5832.848 
    2240    941.71927    121.60504   -12241.144    5682.9339    5682.9339 
    2250    910.34483    117.55363   -12237.082    5627.5028    5627.5028 
    2260    974.37886     125.8224   -12245.364    5497.5101    5497.5101 
    2270     1006.808       130.01   -12249.556    5672.9558    5672.9558 
    2280    966.90065    124.85674   -12244.386     6145.771     6145.771 
    2290    1017.9817    131.45287   -12250.987    6346.6131    6346.6131 
    2300    1099.1657    141.93624    -12261.49    6317.8158    6317.8158 
    2310    1029.2892    132.91302    -12252.45    6375.3692    6375.3692 
    2320    968.80723    125.10293   -12244.628    6169.7295    6169.7295 
    2330    1028.4399    132.80336   -12252.352    5729.9841    5729.9841 
    2340    995.17003    128.50719   -12248.051    5655.7531    5655.7531 
    2350    909.87417    117.49286   -12237.016     5825.889     5825.889 
    2360    969.93462    125.24852   -12244.786    5747.2375    5747.2375 
    2370     1038.914    134.15588   -12253.707    5744.7646    5744.7646 
    2380    983.74514    127.03188   -12246.564    6002.6243    6002.6243 
    2390    976.65422    126.11622   -12245.648    6095.3451    6095.3451 
    2400    1027.9981    132.74631   -12252.293    6066.9559    6066.9559 
    2410    1015.7099    131.15951   -12250.694     6225.831     6225.831 
    2420    1032.6085    133.34165   -12252.881     6273.094     6273.094 
    2430    1037.3934    133.95953   -12253.507    6227.0176    6227.0176 
    2440    968.46735    125.05905   -12244.588    6186.2411    6186.2411 
    2450    984.90458     127.1816   -12246.716    5841.1341    5841.1341 
    2460    1025.1011    132.37221   -12251.927    5485.4038    5485.4038 
    2470    913.03218    117.90065   -12237.431    5657.5294    5657.5294 
    2480    890.92575    115.04603   -12234.564     5836.797     5836.797 
    2490    1051.8429     135.8254   -12255.384    5798.5877    5798.5877 
    2500    1035.2397    133.68142   -12253.226    6151.9363    6151.9363 
    2510    955.88101    123.43376   -12242.952    6394.5823    6394.5823 
    2520    1055.5821    136.30825   -12255.859    6022.4627    6022.4627 
    2530    1035.0491     133.6568   -12253.212    5840.6857    5840.6857 
    2540    868.50297    112.15056   -12231.662    5928.1946    5928.1946 
    2550    949.52658    122.61321   -12242.149    5575.8932    5575.8932 
    2560    1060.9496    137.00136   -12256.564    5451.3635    5451.3635 
    2570    959.39292    123.88726   -12243.409    6021.7915    6021.7915 
    2580    994.12862    128.37271   -12247.904    6268.9234    6268.9234 
    2590    1095.8003    141.50166   -12261.062    6341.4562    6341.4562 
    2600    1001.4791    129.32189    -12248.85    6705.5268    6705.5268 
    2610    1000.9045    129.24769   -12248.771    6562.6831    6562.6831 
    2620    1133.5203    146.37248   -12265.939    5972.6074    5972.6074 
    2630    1013.6677    130.89581   -12250.436    5977.1191    5977.1191 
    2640    875.18906    113.01394   -12232.526    6006.1656    6006.1656 
    2650    987.21536    127.47999    -12247.03    5550.1843    5550.1843 
    2660    1003.9486    129.64077   -12249.192    5516.0319    5516.0319 
    2670    897.51503    115.89691   -12235.417    5759.3502    5759.3502 
    2680    948.37524    122.46453   -12242.005    5655.5055    5655.5055 
    2690    982.29552    126.84469   -12246.394    5793.1057    5793.1057 
    2700    931.46342     120.2807   -12239.799     6269.643     6269.643 
    2710    1063.9604    137.39015   -12256.932    6239.2782    6239.2782 
    2720    1160.9064    149.90887    -12269.47    6241.6372    6241.6372 
    2730    1039.3579     134.2132   -12253.742    6611.5981    6611.5981 
    2740    999.10099    129.01479   -12248.545    6385.8249    6385.8249 
    2750    1028.0754    132.75628   -12252.312    5725.0338    5725.0338 
    2760    902.92917    116.59604   -12236.127    5592.1152    5592.1152 
    2770    850.51492    109.82774   -12229.346    5533.2012    5533.2012 
    2780    985.90975     127.3114   -12246.862    5347.6222    5347.6222 
    2790    1022.1676     131.9934   -12251.538    5707.5671    5707.5671 
    2800    991.24248    128.00002   -12247.529    6285.4413    6285.4413 
    2810    1040.8373    134.40424   -12253.948     6398.247     6398.247 
    2820    1048.9826    135.45605       -12255    6359.3808    6359.3808 
    2830    1006.1875    129.92988   -12249.461    6345.3913    6345.3913 
    2840    1016.2756    131.23256   -12250.776    6069.2274    6069.2274 
    2850    986.10653    127.33681   -12246.876    5905.0738    5905.0738 
    2860    961.30483    124.13414    -12243.66    5960.1418    5960.1418 
    2870    1048.2802    135.36535   -12254.916    5748.8746    5748.8746 
    2880    1013.0383    130.81453   -12250.367    5665.4996    5665.4996 
    2890    852.14996    110.03888   -12229.554    5958.4926    5958.4926 
    2900    919.82397    118.77768   -12238.304    5945.0175    5945.0175 
    2910    1105.2776    142.72547    -12262.29    5711.7961    5711.7961 
    2920    1045.0268    134.94524   -12254.487    6105.9345    6105.9345 
    2930    941.36517    121.55932   -12241.078    6551.7633    6551.7633 
    2940    1034.1138    133.53603   -12253.081    6296.5971    6296.5971 
    2950    1073.2595    138.59095   -12258.147    5929.5835    5929.5835 
    2960    949.48408    122.60772   -12242.133    5896.0314    5896.0314 
    2970    938.96939    121.24995   -12240.782    5680.6768    5680.6768 
    2980    995.15535    128.50529   -12248.056    5514.7484    5514.7484 
    2990    949.80985    122.64979   -12242.181    5873.2068    5873.2068 
    3000    968.52084    125.06595   -12244.595    6256.5985    6256.5985 
    3010    1077.7887     139.1758   -12258.724    6342.3369    6342.3369 
    3020    1085.5975    140.18416   -12259.733    6388.7224    6388.7224 
    3030    995.81602     128.5906    -12248.12    6410.8478    6410.8478 
    3040    986.97309    127.44871   -12246.984    6090.6167    6090.6167 
    3050    1012.9614    130.80461   -12250.349    5730.5498    5730.5498 
    3060    983.91247    127.05349   -12246.591    5624.1392    5624.1392 
    3070    953.24638    123.09355   -12242.631    5634.1973    5634.1973 
    3080    937.33178    121.03848   -12240.576    5716.3981    5716.3981 
    3090    941.65574    121.59684    -12241.13    5866.2653    5866.2653 
    3100    997.95799     128.8672   -12248.408     5972.593     5972.593 
    3110    1029.3133    132.91614   -12252.461     6090.262     6090.262 
    3120    997.46553    128.80361   -12248.336    6275.1708    6275.1708 
    3130    1020.7793    131.81414    -12251.35    6197.9413    6197.9413 
    3140    1067.0652    137.79108   -12257.341    5931.3489    5931.3489 
    3150    1002.0851    129.40014   -12248.939     5843.684     5843.684 
    3160    929.50693    120.02805   -12239.556    5837.7629    5837.7629 
    3170    947.45203    122.34532   -12241.888    5802.6752    5802.6752 
    3180    937.41073    121.04868   -12240.584    5968.5553    5968.5553 
    3190    964.57645    124.55661   -12244.084    6207.0958    6207.0958 
    3200    1095.5195     141.4654   -12261.011    6248.9652    6248.9652 
    3210    1146.7774    148.08438    -12267.64    6315.9738    6315.9738 
    3220     1027.685    132.70588    -12252.24    6392.5495    6392.5495 
    3230    947.95604     122.4104   -12241.939    6114.6772    6114.6772 
    3240    967.89056    124.98456   -12244.528    5698.8578    5698.8578 
    3250    949.29272    122.58301   -12242.121    5624.4207    5624.4207 
    3260    929.31966    120.00387   -12239.538    5685.2236    5685.2236 
    3270    952.23777    122.96331   -12242.501    5793.8944    5793.8944 
    3280    987.26502    127.48641   -12247.024    6002.5085    6002.5085 
    3290    1036.3234    133.82136   -12253.359    6171.3234    6171.3234 
    3300    1088.4849    140.55702   -12260.103    6179.6181    6179.6181 
    3310    1056.9173    136.48067   -12256.024    6198.3754    6198.3754 
    3320    973.16432    125.66557   -12245.198     6153.033     6153.033 
    3330    947.09317    122.29898   -12241.835    5926.0754    5926.0754 
    3340    957.17008    123.60022   -12243.138    5803.4126    5803.4126 
    3350    980.58301    126.62355    -12246.16    5794.8577    5794.8577 
    3360    1017.4491     131.3841    -12250.93    5810.3378    5810.3378 
    3370    986.70918    127.41463   -12246.955    5995.8214    5995.8214 
    3380    943.73819    121.86575   -12241.392     6241.469     6241.469 
    3390    1020.2581    131.74684   -12251.285      6167.66      6167.66 
    3400    1095.2612    141.43204   -12260.986    5984.5963    5984.5963 
    3410    1009.7162    130.38555   -12249.926     6098.523     6098.523 
    3420    914.80457    118.12952    -12237.65     6201.936     6201.936 
    3430    993.40994     128.2799   -12247.823    5856.6859    5856.6859 
    3440      1037.76    134.00687   -12253.558    5702.2073    5702.2073 
    3450    957.89381    123.69368   -12243.224    5980.1107    5980.1107 
    3460    954.68266    123.27902    -12242.81    6101.8042    6101.8042 
    3470    1024.6667    132.31612   -12251.865    6042.7135    6042.7135 
    3480    1003.1895    129.54275   -12249.081    6177.9399    6177.9399 
    3490    987.56364    127.52497   -12247.054     6230.794     6230.794 
    3500    1059.3401    136.79353   -12256.342    5943.2119    5943.2119 
    3510    1031.8359    133.24189   -12252.791    5796.1146    5796.1146 
    3520    907.85509    117.23213   -12236.758    5856.3201    5856.3201 
    3530    914.44263    118.08279   -12237.614    5718.7025    5718.7025 
    3540    995.46431    128.54519   -12248.095    5650.9298    5650.9298 
    3550    982.67694    126.89394   -12246.427    6016.7347    6016.7347 
    3560    1007.6547    130.11934   -12249.653    6385.0386    6385.0386 
    3570    1081.8178    139.69609   -12259.242    6563.0842    6563.0842 
    3580     1089.277     140.6593   -12260.201     6588.742     6588.742 
    3590    1062.6103    137.21581   -12256.755    6271.8123    6271.8123 
    3600    1022.2104    131.99894   -12251.545    5754.0246    5754.0246 
    3610    911.84884    117.74785   -12237.284    5588.9704    5588.9704 
    3620    843.11364    108.87201   -12228.393    5684.7557    5684.7557 
    3630    948.86784    122.52814    -12242.07    5653.4748    5653.4748 
    3640    1034.8963    133.63708   -12253.185    5880.8705    5880.8705 
    3650    1030.8971    133.12065   -12252.653    6320.3064    6320.3064 
    3660    1066.7178    137.74622   -12257.289    6408.1993    6408.1993 
    3670    1060.3535    136.92439   -12256.472    6237.3698    6237.3698 
    3680    970.38691    125.30692    -12244.84    6060.7018    6060.7018 
    3690    930.10217    120.10492   -12239.638    5810.7612    5810.7612 
    3700    948.42729    122.47125   -12242.013    5649.1635    5649.1635 
    3710    946.57298    122.23181   -12241.766    5815.4307    5815.4307 
    3720    988.07795    127.59138   -12247.126    5974.8878    5974.8878 
    3730    1062.1236    137.15296   -12256.704      5888.67      5888.67 
    3740    1010.3629    130.46905   -12250.013    5942.9808    5942.9808 
    3750    911.44849    117.69615   -12237.221    6127.1351    6127.1351 
    3760     956.8937    123.56453   -12243.097    6122.6265    6122.6265 
    3770    1064.7801      137.496   -12257.048    6090.3133    6090.3133 
    3780     1047.955    135.32336   -12254.863    6390.3225    6390.3225 
    3790    1014.8437    131.04767   -12250.578    6544.1526    6544.1526 
    3800    1063.6155    137.34561   -12256.891    6196.9393    6196.9393 
    3810    1049.0866    135.46948    -12255.02    5886.4064    5886.4064 
    3820    918.17557    118.56482   -12238.095    5897.8832    5897.8832 
    3830    880.18228    113.65872   -12233.183      5787.35      5787.35 
    3840    989.14904    127.72969   -12247.277    5610.8657    5610.8657 
    3850    1028.1882    132.77085   -12252.317    5892.6858    5892.6858 
    3860    1002.3399    129.43303   -12248.961     6406.085     6406.085 
    3870     1079.014    139.33404   -12258.876    6476.6971    6476.6971 
    3880    1117.8022    144.34279     -12263.9    6293.6436    6293.6436 
    3890    982.96987    126.93177   -12246.465    6184.6249    6184.6249 
    3900    893.14854    115.33306   -12234.861    5870.9235    5870.9235 
    3910    913.95191    118.01942   -12237.561    5572.5274    5572.5274 
    3920    923.15546    119.20788   -12238.744    5627.9357    5627.9357 
    3930    966.79833    124.84352   -12244.378    5717.9085    5717.9085 
    3940    1039.0271    134.17049   -12253.722    5716.8951    5716.8951 
    3950    996.70936    128.70596   -12248.241    6059.2702    6059.2702 
    3960    989.04257    127.71594   -12247.244    6358.2589    6358.2589 
    3970    1081.8417    139.69918   -12259.251    6302.9724    6302.9724 
    3980    1054.2743    136.13938   -12255.686     6400.193     6400.193 
    3990    956.86375    123.56066   -12243.084    6501.9534    6501.9534 
    4000    1013.2142    130.83724   -12250.377    6094.9483    6094.9483 
    4010    1061.7247    137.10144   -12256.658    5741.2108    5741.2108 
    4020    941.37782    121.56095    -12241.09    5877.7331    5877.7331 
    4030    902.17488    116.49864   -12236.026    5800.6639    5800.6639 
    4040    976.58386    126.10714   -12245.656    5582.4736    5582.4736 
    4050     962.6476    124.30754   -12243.846    5862.8366    5862.8366 
    4060    957.31989    123.61956   -12243.146    6213.4419    6213.4419 
    4070    1067.0462    137.78863   -12257.339    6161.8414    6161.8414 
    4080    1074.5019    138.75139   -12258.298    6254.2257    6254.2257 
    4090    1002.2921    129.42686   -12248.956    6421.5099    6421.5099 
    4100    1014.9337    131.05928     -12250.6    6177.8697    6177.8697 
    4110     1016.566    131.27007   -12250.817    5965.1587    5965.1587 
    4120    946.79124    122.25999   -12241.792    6039.8743    6039.8743 
    4130    947.31183    122.32721   -12241.858    5998.7868    5998.7868 
    4140    1023.4228    132.15549   -12251.704    5830.3419    5830.3419 
    4150    1014.3053    130.97814    -12250.52    5955.0872    5955.0872 
    4160    975.59444    125.97937   -12245.513    6128.3585    6128.3585 
    4170    993.35399    128.27268   -12247.812    6091.3488    6091.3488 
    4180    1015.5439    131.13808    -12250.68     6122.732     6122.732 
    4190    1010.7136    130.51434   -12250.052    6245.5655    6245.5655 
    4200    1010.4356    130.47845   -12250.017    6170.8431    6170.8431 
    4210    1008.5893    130.24002   -12249.782    5993.9877    5993.9877 
    4220    976.98117    126.15844   -12245.694    5934.6198    5934.6198 
    4230    979.34566    126.46377   -12246.001    5789.6678    5789.6678 
    4240    993.41515    128.28058   -12247.826    5640.8169    5640.8169 
    4250    950.90791    122.79158   -12242.328     5778.034     5778.034 
    4260    938.84348    121.23369   -12240.765    5983.7656    5983.7656 
    4270    1001.3037    129.29923   -12248.843    6120.6476    6120.6476 
    4280    1023.2793    132.13696   -12251.677    6467.5606    6467.5606 
    4290    1038.4335    134.09384   -12253.626    6681.9003    6681.9003 
    4300    1105.4166    142.74342   -12262.293    6292.9337    6292.9337 
    4310    1055.6179    136.31287   -12255.867     5835.626     5835.626 
    4320    862.79796    111.41386   -12230.936    5772.8869    5772.8869 
    4330    835.58292    107.89956   -12227.421    5569.4696    5569.4696 
    4340    985.91177    127.31166   -12246.865    5290.3846    5290.3846 
    4350      1001.33    129.30263   -12248.848    5688.2826    5688.2826 
    4360    956.70062     123.5396    -12243.06    6369.8821    6369.8821 
    4370    1087.1306    140.38214   -12259.923     6541.369     6541.369 
    4380    1188.8431    153.51636   -12273.081    6551.2997    6551.2997 
    4390    1041.7401    134.52082   -12254.056    6763.3255    6763.3255 
    4400    926.87024    119.68757   -12239.207    6511.4214    6511.4214 
    4410    997.32418    128.78535   -12248.335    5851.9093    5851.9093 
    4420    984.03956     127.0699   -12246.614    5741.1097    5741.1097 
    4430    923.57118    119.26156   -12238.784     5896.899     5896.899 
    4440    1011.0737    130.56084   -12250.102    5677.4137    5677.4137 
    4450    1064.3761    137.44383   -12257.001    5583.3155    5583.3155 
    4460    936.71315     120.9586   -12240.488    5913.2319    5913.2319 
    4470    900.90021    116.33404   -12235.857    6004.4759    6004.4759 
    4480    1016.3913    131.24751     -12250.8    5846.9209    5846.9209 
    4490    1006.9883    130.03328   -12249.575    6095.4709    6095.4709 
    4500    966.49666    124.80457    -12244.33    6270.8923    6270.8923 
    4510    1041.5623    134.49786   -12254.048     6047.881     6047.881 
    4520    1020.8695    131.82579   -12251.368    6072.6636    6072.6636 
    4530    973.41449    125.69787   -12245.221    6119.6024    6119.6024 
    4540    1062.5052    137.20224   -12256.753     5760.243     5760.243 
    4550    1030.2444    133.03638   -12252.589     5745.285     5745.285 
    4560    869.03065     112.2187   -12231.734    6103.3795    6103.3795 
    4570    926.47749    119.63686   -12239.168     5972.469     5972.469 
    4580    1052.1451    135.86443   -12255.425    5793.4561    5793.4561 
    4590    976.50285    126.09668   -12245.626    6188.6736    6188.6736 
    4600    983.63429    127.01757   -12246.542    6285.1677    6285.1677 
    4610    1120.1539    144.64647   -12264.206    6023.6287    6023.6287 
    4620    1061.2196    137.03622    -12256.58    6269.7066    6269.7066 
    4630    950.37289    122.72249    -12242.24    6519.0536    6519.0536 
    4640    1027.2629    132.65137   -12252.201    6054.9878    6054.9878 
    4650    1002.0894    129.40069   -12248.953    5728.1971    5728.1971 
    4660    856.09323    110.54808   -12230.064    5798.7635    5798.7635 
    4670     922.8139    119.16378   -12238.698    5607.9885    5607.9885 
    4680    1032.4968    133.32722   -12252.884    5557.5677    5557.5677 
    4690    972.80942    125.61974   -12245.149    6110.2755    6110.2755 
    4700    995.88097    128.59899   -12248.127     6458.843     6458.843 
    4710    1117.3937    144.29004   -12263.846    6464.9057    6464.9057 
    4720    1086.0571    140.24352   -12259.785    6580.1949    6580.1949 
    4730    1011.5277    130.61946   -12250.152    6366.4172    6366.4172 
    4740    993.24862    128.25907   -12247.803    5749.3931    5749.3931 
    4750    928.97196    119.95897   -12239.497    5416.6112    5416.6112 
    4760    869.33588    112.25811   -12231.786    5522.0255    5522.0255 
    4770    919.73454    118.76613   -12238.301    5673.3027    5673.3027 
    4780    1006.5672    129.97892   -12249.523    5841.1488    5841.1488 
    4790    1040.9495    134.41873   -12253.958    6196.7534    6196.7534 
    4800    1057.4285    136.54668   -12256.087    6549.5068    6549.5068 
    4810    1056.2458    136.39396   -12255.932    6688.0957    6688.0957 
    4820    1062.5326    137.20577   -12256.744    6481.6984    6481.6984 
    4830    1057.5598    136.56363   -12256.113    6055.9502    6055.9502 
    4840    952.19839    122.95822   -12242.496    5761.5676    5761.5676 
    4850    861.10792    111.19563   -12230.719     5631.703     5631.703 
    4860    930.19766    120.11725   -12239.654    5501.0735    5501.0735 
    4870    1017.6375    131.40843    -12250.96    5552.3741    5552.3741 
    4880    980.47834    126.61003   -12246.144    5963.8204    5963.8204 
    4890    979.74032    126.51474   -12246.044    6245.4907    6245.4907 
    4900     1059.098    136.76227    -12256.31    6179.8421    6179.8421 
    4910    1047.5728      135.274   -12254.819    6146.1705    6146.1705 
    4920    968.84352    125.10762   -12244.639    6225.9349    6225.9349 
    4930    959.63001    123.91787   -12243.452    6124.7754    6124.7754 
    4940    999.32119    129.04323   -12248.585    5920.8492    5920.8492 
    4950    1004.6068    129.72576   -12249.266    5903.7997    5903.7997 
    4960    996.85524     128.7248   -12248.258    6075.3145    6075.3145 
    4970    1029.5219    132.94308   -12252.483    6166.3082    6166.3082 
    4980    1041.6587    134.51031   -12254.055    6145.1498    6145.1498 
    4990    988.02606    127.58468   -12247.123    6103.9308    6103.9308 
    5000    946.53852    122.22736   -12241.758    6051.2272    6051.2272 
    5010    982.88445    126.92074   -12246.461     5934.007     5934.007 
    5020    1007.0612     130.0427   -12249.585     5899.858     5899.858 
    5030    991.51019    128.03459   -12247.571    5902.7093    5902.7093 
    5040    986.64793    127.40672   -12246.946    5853.9707    5853.9707 
    5050    978.23888    126.32085   -12245.858    5946.0321    5946.0321 
    5060    991.67432    128.05578   -12247.591    6148.2009    6148.2009 
    5070    1038.9071    134.15499   -12253.697    6271.3633    6271.3633 
    5080    1046.1376    135.08868   -12254.633    6273.0447    6273.0447 
    5090    996.20111    128.64033   -12248.174    6169.6473    6169.6473 
    5100    987.20926    127.47921   -12247.016    5924.8018    5924.8018 
    5110    998.36725    128.92005   -12248.464    5727.0019    5727.0019 
    5120    962.39574    124.27501   -12243.814    5678.0522    5678.0522 
    5130    924.94455    119.43891   -12238.973    5674.8086    5674.8086 
    5140    939.71027    121.34562   -12240.883    5791.2272    5791.2272 
    5150    976.96149     126.1559   -12245.693    6096.8355    6096.8355 
    5160     1036.685    133.86805   -12253.407    6325.9848    6325.9848 
    5170    1083.2593    139.88223   -12259.431    6316.3696    6316.3696 
    5180    1029.7781    132.97615   -12252.514    6267.6449    6267.6449 
    5190    979.63684    126.50137   -12246.034     6122.627     6122.627 
    5200    996.03013    128.61825   -12248.159    5972.0299    5972.0299 
    5210     996.0225    128.61727    -12248.16    5998.9403    5998.9403 
    5220     966.1655    124.76181   -12244.292    6089.9125    6089.9125 
    5230    1016.0351    131.20152   -12250.743    5953.3054    5953.3054 
    5240    1040.4571    134.35514   -12253.905    5913.2999    5913.2999 
    5250    962.31099    124.26407   -12243.796    6090.8374    6090.8374 
    5260     951.0469    122.80953   -12242.341    5989.1906    5989.1906 
    5270    1008.1133    130.17857   -12249.727    5755.1944    5755.1944 
    5280    983.64121    127.01846   -12246.556     5914.489     5914.489 
    5290    966.36413    124.78746    -12244.32    6097.1777    6097.1777 
    5300    1005.5024    129.84141   -12249.387    6017.7212    6017.7212 
    5310     988.7754    127.68144   -12247.219    6012.4225    6012.4225 
    5320    982.09196     126.8184   -12246.353     6029.894     6029.894 
    5330    1017.3126    131.36647   -12250.912    5982.1496    5982.1496 
    5340    998.75893    128.97062   -12248.508    6155.8469    6155.8469 
    5350     1002.579    129.46392   -12248.993     6366.261     6366.261 
    5360    1087.6921    140.45464   -12260.006    6244.0655    6244.0655 
    5370    1051.0639    135.72481   -12255.273     6238.794     6238.794 
    5380    934.22277    120.63701   -12240.156    6400.1732    6400.1732 
    5390    1000.4678    129.19129   -12248.732    6029.7848    6029.7848 
    5400    1050.3679    135.63494   -12255.194     5575.836     5575.836 
    5410    909.42734    117.43516   -12236.962    5721.1154    5721.1154 
    5420    881.38942     113.8146   -12233.338     5770.302     5770.302 
    5430    1004.5327     129.7162   -12249.269    5601.0876    5601.0876 
    5440    1000.8307    129.23816   -12248.783    5855.1842    5855.1842 
    5450    944.88892    122.01434   -12241.536    6380.1207    6380.1207 
    5460     1052.646     135.9291   -12255.471    6371.9939    6371.9939 
    5470    1125.8366    145.38028   -12264.938    6178.2639    6178.2639 
    5480    1015.7474    131.16436   -12250.697    6289.9003    6289.9003 
    5490    950.71273    122.76638   -12242.296    6150.8891    6150.8891 
    5500    980.53815    126.61776   -12246.161    5748.1456    5748.1456 
    5510     971.8763    125.49925    -12245.04    5629.3662    5629.3662 
    5520    941.18548    121.53611    -12241.07    5797.4722    5797.4722 
    5530    963.13991    124.37111   -12243.907    5919.8879    5919.8879 
    5540    1013.5848     130.8851   -12250.431    6033.1005    6033.1005 
    5550    1003.0502    129.52476   -12249.063    6281.6851    6281.6851 
    5560    996.49148    128.67783   -12248.213    6349.4851    6349.4851 
    5570    1029.1179    132.89091   -12252.434    6194.2274    6194.2274 
    5580     1024.436    132.28633   -12251.828    6135.0281    6135.0281 
    5590    996.63241    128.69603   -12248.232    6124.3226    6124.3226 
    5600    1003.2745    129.55373   -12249.092    6005.2864    6005.2864 
    5610    1015.7685    131.16708   -12250.712    5975.7984    5975.7984 
    5620    982.55399    126.87807   -12246.411    6161.4351    6161.4351 
    5630    1005.3058    129.81603   -12249.352    6153.6634    6153.6634 
    5640    1051.4497    135.77464   -12255.325    6046.6807    6046.6807 
    5650    988.15871    127.60181   -12247.139    6186.1777    6186.1777 
    5660    940.54244    121.45308   -12240.981    6186.2434    6186.2434 
    5670    998.93053    128.99278   -12248.537    5931.6199    5931.6199 
    5680    1002.6995    129.47947   -12249.027    5917.3398    5917.3398 
    5690    935.53164    120.80603   -12240.328    6048.6322    6048.6322 
    5700    1013.3649    130.85671   -12250.398    5786.4119    5786.4119 
    5710    1057.4656    136.55147    -12256.11    5717.9164    5717.9164 
    5720    919.66307    118.75691   -12238.283    6127.3098    6127.3098 
    5730    904.15918    116.75487   -12236.279    6083.2462    6083.2462 
    5740    1036.5299    133.84802   -12253.404    5693.0973    5693.0973 
    5750    1013.3732    130.85778   -12250.402    5885.4291    5885.4291 
    5760    945.83249    122.13619   -12241.656    6252.2945    6252.2945 
    5770     1053.006     135.9756   -12255.523    6160.4298    6160.4298 
    5780    1084.7936    140.08036   -12259.634    6270.1177    6270.1177 
    5790    975.28778    125.93977   -12245.463    6686.0019    6686.0019 
    5800     1008.488    130.22695   -12249.761    6500.7465    6500.7465 
    5810    1080.6401    139.54401   -12259.104    6022.2049    6022.2049 
    5820     959.7907    123.93862   -12243.472    5916.5682    5916.5682 
    5830    888.55336    114.73968   -12234.262     5637.705     5637.705 
    5840    975.55466    125.97424   -12245.522    5222.5365    5222.5365 
    5850    981.89147    126.79251   -12246.336    5530.8968    5530.8968 
    5860    942.79009    121.74332   -12241.267     6177.797     6177.797 
    5870    1039.9769    134.29314   -12253.836    6353.9805    6353.9805 
    5880    1097.9118    141.77432   -12261.328    6404.8151    6404.8151 
    5890    1015.6259    131.14867   -12250.682    6517.2381    6517.2381 
    5900    979.35107    126.46447   -12245.998    6259.6138    6259.6138 
    5910     996.2885    128.65162   -12248.197    5890.7934    5890.7934 
    5920    957.40498    123.63055   -12243.164    5914.9294    5914.9294 
    5930    970.20811    125.28383   -12244.815    5954.1403    5954.1403 
    5940      1044.81    134.91724   -12254.468    5885.8193    5885.8193 
    5950    1012.6974    130.77052   -12250.311    6151.8244    6151.8244 
    5960     966.1866    124.76453   -12244.294    6346.8145    6346.8145 
    5970    1009.3082    130.33286   -12249.878    6051.9323    6051.9323 
    5980    991.36759    128.01617   -12247.562    5865.0827    5865.0827 
    5990    920.09291    118.81241   -12238.335    5982.9566    5982.9566 
    6000    1001.2363    129.29053    -12248.83    5849.2943    5849.2943 
    6010    1071.7372    138.39437   -12257.951    5835.3981    5835.3981 
    6020    974.44251    125.83062   -12245.361      6264.57      6264.57 
    6030    961.21017    124.12192    -12243.65    6312.6896    6312.6896 
    6040    1052.2106    135.87288   -12255.428    5973.1666    5973.1666 
    6050    998.11892    128.88798    -12248.43    6074.3235    6074.3235 
    6060    918.43777    118.59868   -12238.119    6305.9831    6305.9831 
    6070    1011.1386    130.56923   -12250.114    5985.1518    5985.1518 
    6080    1048.1318    135.34618   -12254.902    5755.3417    5755.3417 
    6090    927.86614    119.81618   -12239.342    6010.4358    6010.4358 
    6100    936.52036     120.9337   -12240.461    6021.6816    6021.6816 
    6110    1061.3604    137.05441   -12256.609    5829.7314    5829.7314 
    6120    1038.9853    134.16509   -12253.711    6055.7289    6055.7289 
    6130    953.81051     123.1664    -12242.69    6333.2565    6333.2565 
    6140    1014.0931    130.95074   -12250.493    6204.5811    6204.5811 
    6150    1051.6968    135.80654   -12255.357    6201.2287    6201.2287 
    6160    978.77975     126.3907   -12245.922     6379.036     6379.036 
    6170    968.76459    125.09743   -12244.631    6165.8489    6165.8489 
    6180    1016.3127    131.23736   -12250.782    5803.1524    5803.1524 
    6190     1008.314    130.20448   -12249.745    5802.2994    5802.2994 
    6200    987.88266    127.56616   -12247.098    6015.4232    6015.4232 
    6210    1027.0561    132.62466    -12252.17    6130.4008    6130.4008 
    6220    1014.7978    131.04174   -12250.581    6335.6029    6335.6029 
    6230      992.241    128.12896   -12247.664     6319.012     6319.012 
    6240     994.7851    128.45748   -12248.002    5988.5113    5988.5113 
    6250    948.98349    122.54308   -12242.078     5908.232     5908.232 
    6260    942.72668    121.73513   -12241.266    5864.5157    5864.5157 
    6270    1010.3723    130.47027   -12250.018    5630.7046    5630.7046 
    6280    989.26308    127.74442   -12247.289    5703.3845    5703.3845 
    6290    919.49137    118.73473   -12238.257    6139.3715    6139.3715 
    6300    1015.8634    131.17934   -12250.717    6307.1955    6307.1955 
    6310    1119.1933    144.52242   -12264.084    6293.5533    6293.5533 
    6320    1011.9168    130.66972   -12250.204    6487.0856    6487.0856 
    6330    942.46926    121.70189   -12241.227    6264.3086    6264.3086 
    6340    1004.1828    129.67102   -12249.222     5669.841     5669.841 
    6350    961.08273    124.10546   -12243.645    5604.8297    5604.8297 
    6360    910.97731    117.63531   -12237.157    5868.7687    5868.7687 
    6370    1015.4085     131.1206   -12250.667    5842.1157    5842.1157 
    6380    1049.5345    135.52732   -12255.078    5993.7338    5993.7338 
    6390    978.60036    126.36753   -12245.891    6447.4544    6447.4544 
    6400    1040.3124    134.33647   -12253.878    6503.2352    6503.2352 
    6410    1081.0808    139.60093   -12259.156    6342.6817    6342.6817 
    6420    968.57622     125.0731   -12244.601    6331.3141    6331.3141 
    6430    955.74504     123.4162   -12242.944    6095.2394    6095.2394 
    6440    1042.7428     134.6503   -12254.204    5781.8941    5781.8941 
    6450    994.97118    128.48151    -12248.02    5947.8837    5947.8837 
    6460    947.20115    122.31292   -12241.841    6084.2635    6084.2635 
    6470    994.49612    128.42016   -12247.968    5862.7103    5862.7103 
    6480    969.58569    125.20346   -12244.743    5916.3782    5916.3782 
    6490    946.35929    122.20421    -12241.73    6138.1594    6138.1594 
    6500     1047.737    135.29521   -12254.843    6064.6775    6064.6775 
    6510    1067.4065    137.83515   -12257.387    6085.3213    6085.3213 
    6520    969.60639    125.20613   -12244.732    6288.4204    6288.4204 
    6530    979.42384    126.47387   -12246.013    6101.1225    6101.1225 
    6540     989.2393    127.74135   -12247.288    5858.1975    5858.1975 
    6550    928.36945    119.88117   -12239.411    5832.9434    5832.9434 
    6560     955.2995    123.35867   -12242.893    5793.5757    5793.5757 
    6570    1022.0405    131.97699   -12251.527    5861.9717    5861.9717 
    6580    997.80641    128.84762   -12248.378    6313.3733    6313.3733 
    6590    1052.5058    135.91101   -12255.443     6602.504     6602.504 
    6600    1159.5127     149.7289    -12269.29     6439.066     6439.066 
    6610    1048.7136    135.42131   -12254.966    6348.8987    6348.8987 
    6620     879.6413    113.58886   -12233.106    6170.3214    6170.3214 
    6630    919.11288    118.68586   -12238.223    5589.6821    5589.6821 
    6640    985.85201    127.30394   -12246.858    5266.5523    5266.5523 
    6650    910.92244    117.62822    -12237.16    5587.6512    5587.6512 
    6660    902.07084    116.48521   -12236.011    5955.4051    5955.4051 
    6670     1021.525    131.91043   -12251.456    6101.2899    6101.2899 
    6680    1078.4447    139.26051   -12258.809    6295.5496    6295.5496 
    6690    1037.6877    133.99753   -12253.534       6489.6       6489.6 
    6700    1020.3857     131.7633   -12251.298    6424.6576    6424.6576 
    6710    1044.3726    134.86076   -12254.404    6200.3238    6200.3238 
    6720    1028.9539    132.86972   -12252.414    6114.4686    6114.4686 
    6730    968.09879    125.01145   -12244.543    6193.3832    6193.3832 
    6740    981.31488    126.71806   -12246.252    6105.3887    6105.3887 
    6750    1037.2908    133.94628   -12253.498    5877.0581    5877.0581 
    6760    970.01587    125.25901   -12244.801    5925.4548    5925.4548 
    6770    875.93559    113.11034    -12232.63    6081.9497    6081.9497 
    6780    973.89981    125.76054   -12245.297    5961.3454    5961.3454 
    6790    1092.0294    141.01472   -12260.574    5817.0389    5817.0389 
    6800    1016.3743    131.24531   -12250.783    6004.6192    6004.6192 
    6810    947.10819    122.30092   -12241.827    6123.0067    6123.0067 
    6820    999.96545    129.12642   -12248.672    5979.4301    5979.4301 
    6830    997.93957    128.86482   -12248.408    6060.7571    6060.7571 
    6840    962.49494    124.28782   -12243.817    6237.0444    6237.0444 
    6850    1015.1285    131.08444   -12250.625    6232.7338    6232.7338 
    6860    1054.2698    136.13879   -12255.684    6260.4015    6260.4015 
    6870    1035.1513    133.67001   -12253.205    6313.4778    6313.4778 
    6880    1039.0802    134.17735    -12253.72    6116.3465    6116.3465 
    6890    1001.8428    129.36885   -12248.915    5905.3217    5905.3217 
    6900    904.75699    116.83207    -12236.36     5882.154     5882.154 
    6910    908.45822    117.31001   -12236.843    5692.6455    5692.6455 
    6920    973.10947    125.65849   -12245.205     5518.328     5518.328 
    6930    968.83939    125.10709   -12244.644    5752.0042    5752.0042 
    6940     977.0016    126.16108   -12245.694     6071.729     6071.729 
    6950    1038.2376    134.06854   -12253.615     6200.948     6200.948 
    6960    1031.1928    133.15883     -12252.7    6412.0817    6412.0817 
    6970    1003.4243    129.57307   -12249.103    6553.8504    6553.8504 
    6980    1054.3511    136.14929   -12255.692    6331.9768    6331.9768 
    6990     1067.778    137.88312    -12257.43    6126.5044    6126.5044 
    7000    1004.0181    129.64974   -12249.185    6149.7203    6149.7203 
    7010    972.96834    125.64026   -12245.176    6079.8886    6079.8886 
    7020    976.52832    126.09997   -12245.641    5901.5584    5901.5584 
    7030    964.64319    124.56523   -12244.103    5845.2632    5845.2632 
    7040    958.38386    123.75696   -12243.295    5884.2352    5884.2352 
    7050    965.37846    124.66017   -12244.198    5928.3567    5928.3567 
    7060     983.7113    127.02751   -12246.566    5947.5928    5947.5928 
    7070     1006.041    129.91097    -12249.45    5939.1621    5939.1621 
    7080    1026.1397    132.50633    -12252.05    5875.4417    5875.4417 
    7090    1005.6777    129.86406   -12249.403    5954.1581    5954.1581 
    7100    982.16927    126.82839   -12246.363    6169.0109    6169.0109 
    7110    991.92235    128.08781   -12247.629    6226.9539    6226.9539 
    7120    990.13371    127.85684   -12247.393    6225.0454    6225.0454 
    7130    1003.1594    129.53886   -12249.079    6221.6486    6221.6486 
    7140    1006.8367    130.01371   -12249.553    6281.6998    6281.6998 
    7150     1013.041    130.81488    -12250.35    6269.2928    6269.2928 
    7160     1053.686     136.0634   -12255.607    6068.3352    6068.3352 
    7170    1044.7535    134.90994   -12254.456    5917.2127    5917.2127 
    7180    959.07287    123.84593   -12243.379    5910.7688    5910.7688 
    7190     918.8325    118.64965   -12238.182    5849.1646    5849.1646 
    7200    944.69485    121.98928   -12241.528    5843.0243    5843.0243 
    7210    973.23827    125.67512   -12245.214    5946.0164    5946.0164 
    7220    1000.0389    129.13591   -12248.676    6004.3332    6004.3332 
    7230    1016.7892    131.29889   -12250.839    6054.2651    6054.2651 
    7240    1018.8971    131.57109   -12251.111    6108.5528    6108.5528 
    7250    1010.5046    130.48735   -12250.025    6090.5264    6090.5264 
    7260    1003.1659     129.5397   -12249.081    6052.5485    6052.5485 
    7270    977.67269    126.24774   -12245.782    6141.6761    6141.6761 
    7280     999.0272    129.00527    -12248.54    6119.0112    6119.0112 
    7290    1048.5849    135.40469   -12254.954    6014.3622    6014.3622 
    7300     1000.408    129.18357   -12248.723    6161.1324    6161.1324 
    7310    944.70388    121.99045    -12241.52    6210.4823    6210.4823 
    7320    977.17333    126.18326   -12245.724    5878.8882    5878.8882 
    7330    987.29705    127.49054   -12247.035     5634.845     5634.845 
    7340    942.44071     121.6982    -12241.23    5780.7639    5780.7639 
    7350    966.67269     124.8273    -12244.36     6049.088     6049.088 
    7360    1051.3224    135.75819   -12255.304    6266.8217    6266.8217 
    7370    1071.1896    138.32366   -12257.867    6491.6889    6491.6889 
    7380    1041.8059    134.52932   -12254.064     6561.284     6561.284 
    7390    1038.9573    134.16147   -12253.704    6303.5595    6303.5595 
    7400    1003.9185    129.63689   -12249.178    6026.8378    6026.8378 
    7410    937.54793    121.06639   -12240.602    5873.5281    5873.5281 
    7420    912.68327     117.8556   -12237.387    5782.7485    5782.7485 
    7430    968.65568    125.08337   -12244.622    5693.9736    5693.9736 
    7440    1032.4439    133.32039   -12252.865    5797.6152    5797.6152 
    7450    1031.4877    133.19692   -12252.738    6079.0971    6079.0971 
    7460    1000.1565     129.1511   -12248.687    6261.1573    6261.1573 
    7470    991.72504    128.06233     -12247.6    6181.5743    6181.5743 
    7480    994.93715    128.47711   -12248.019    6010.6002    6010.6002 
    7490    972.04718    125.52131   -12245.058    5988.3312    5988.3312 
    7500    970.21412    125.28461   -12244.821    6017.9631    6017.9631 
    7510     992.5187    128.16482   -12247.705    5994.3808    5994.3808 
    7520    999.22483    129.03079   -12248.571    5936.7221    5936.7221 
    7530    992.08261     128.1085   -12247.647    5868.8533    5868.8533 
    7540    983.64316    127.01871   -12246.559     5944.872     5944.872 
    7550    970.76876    125.35623   -12244.892    6197.7783    6197.7783 
    7560    995.27311     128.5205   -12248.057    6318.1558    6318.1558 
    7570    1041.2115    134.45256   -12253.996    6243.3406    6243.3406 
    7580    1044.7856    134.91409   -12254.454    6192.6782    6192.6782 
    7590    1032.7631    133.36161   -12252.901    6141.3002    6141.3002 
    7600    1009.9874    130.42057   -12249.964     5986.735     5986.735 
    7610    940.99896    121.51203   -12241.049    5900.4068    5900.4068 
    7620    900.22146    116.24639   -12235.773    5936.8212    5936.8212 
    7630    982.24463    126.83812    -12246.38    5907.6189    5907.6189 
    7640    1037.4976    133.97298   -12253.522    6051.6054    6051.6054 
    7650    1006.3728    129.95381   -12249.485    6409.2867    6409.2867 
    7660     1047.507    135.26551   -12254.803    6447.0987    6447.0987 
    7670    1098.1468    141.80466   -12261.358    6186.3247    6186.3247 
    7680    1008.1671    130.18552   -12249.723    6126.0542    6126.0542 
    7690    931.83549    120.32874   -12239.854    6081.7796    6081.7796 
    7700    980.72936    126.64245    -12246.19    5784.8138    5784.8138 
    7710    951.13453    122.82084   -12242.365     5764.162     5764.162 
    7720    881.65637    113.84907   -12233.369    5971.4754    5971.4754 
    7730    992.39537    128.14889    -12247.69    5841.0974    5841.0974 
    7740    1081.9815    139.71723   -12259.274    5799.3576    5799.3576 
    7750    1000.6841    129.21923   -12248.753    6221.0963    6221.0963 
    7760     964.4307    124.53779   -12244.065    6477.1578    6477.1578 
    7770    1042.6184    134.63424   -12254.181    6310.3426    6310.3426 
    7780    1046.9276    135.19068   -12254.738    6239.5107    6239.5107 
    7790    973.77498    125.74442   -12245.274    6346.5677    6346.5677 
    7800    990.83612    127.94755   -12247.484    6200.2449    6200.2449 
    7810    1031.9977    133.26278    -12252.81    5972.5685    5972.5685 
    7820    990.46322    127.89939   -12247.439    5946.6655    5946.6655 
    7830    940.16494    121.40433   -12240.935    5954.8959    5954.8959 
    7840     971.9345    125.50676   -12245.046    5823.8798    5823.8798 
    7850     1004.642    129.73032   -12249.277    5810.2845    5810.2845 
    7860    959.44799    123.89437   -12243.432    5978.8531    5978.8531 
    7870    928.39569    119.88456   -12239.414    6063.6638    6063.6638 
    7880    992.50336    128.16284   -12247.702    6024.4428    6024.4428 
    7890    1052.7817    135.94664   -12255.496    6121.5862    6121.5862 
    7900    1017.5795    131.40094   -12250.937    6431.2986    6431.2986 
    7910     1015.054    131.07482   -12250.608    6540.2429    6540.2429 
    7920    1070.6636    138.25574   -12257.804    6358.7086    6358.7086 
    7930    1039.2689    134.20172   -12253.744    6223.0922    6223.0922 
    7940    972.79632    125.61805   -12245.147      6154.45      6154.45 
    7950    999.39736    129.05307   -12248.594    5965.8917    5965.8917 
    7960    1010.4276    130.47741   -12250.026    5809.5778    5809.5778 
    7970     939.6642    121.33967   -12240.873     5806.064     5806.064 
    7980    926.20911     119.6022   -12239.136     5831.061     5831.061 
    7990    966.02053    124.74309   -12244.287    6028.5439    6028.5439 
    8000    978.34867    126.33503   -12245.868    6370.8105    6370.8105 
    8010    1045.7506     135.0387   -12254.578    6360.6624    6360.6624 
    8020     1102.056    142.30947   -12261.862    6173.9928    6173.9928 
    8030    1033.5751    133.46647   -12253.005    6170.7848    6170.7848 
    8040     962.4619    124.28356   -12243.817    6026.1311    6026.1311 
    8050     944.0759    121.90936   -12241.451    5765.4998    5765.4998 
    8060    908.09593    117.26323   -12236.798    5780.7756    5780.7756 
    8070    929.19061    119.98721   -12239.515    5972.5009    5972.5009 
    8080    1048.0858    135.34025   -12254.892    6054.0651    6054.0651 
    8090    1058.3159    136.66126   -12256.205    6359.6822    6359.6822 
    8100    1024.4092    132.28287   -12251.812    6545.5547    6545.5547 
    8110    1065.4133    137.57777   -12257.128    6238.9886    6238.9886 
    8120    995.78796    128.58698   -12248.132    5985.2912    5985.2912 
    8130    868.46109    112.14515   -12231.665    5875.2914    5875.2914 
    8140    923.97594    119.31383   -12238.848    5616.8903    5616.8903 
    8150    1023.1642     132.1221   -12251.679    5558.9418    5558.9418 
    8160    963.48353    124.41548   -12243.945    6066.4183    6066.4183 
    8170    992.58894    128.17389   -12247.702    6411.7628    6411.7628 
    8180    1124.2015    145.16913   -12264.727    6378.1987    6378.1987 
    8190    1075.1951    138.84089   -12258.385    6529.6862    6529.6862 
    8200    968.98199     125.1255   -12244.649    6584.0691    6584.0691 
    8210    1012.7954    130.78317   -12250.325    6135.9194    6135.9194 
    8220    1036.4599    133.83899   -12253.389     5794.731     5794.731 
    8230    956.35483    123.49495   -12243.029    5841.5958    5841.5958 
    8240    922.87864    119.17213   -12238.704    5855.3947    5855.3947 
    8250    961.13129    124.11173   -12243.651    5775.2663    5775.2663 
    8260    1004.5981    129.72465   -12249.264    5853.2559    5853.2559 
    8270    1031.0432    133.13952   -12252.684    6038.9878    6038.9878 
    8280    994.73819    128.45142   -12247.991    6261.4798    6261.4798 
    8290     961.1985    124.12041   -12243.649    6326.5192    6326.5192 
    8300    1024.0658    132.23852   -12251.783     6045.719     6045.719 
    8310    1032.3913     133.3136   -12252.861    5807.1186    5807.1186 
    8320    953.45384    123.12034   -12242.652    5763.1756    5763.1756 
    8330    942.20258    121.66745     -12241.2     5743.673     5743.673 
    8340    991.66431    128.05449   -12247.602    5838.4425    5838.4425 
    8350    968.12005     125.0142   -12244.549    6204.7477    6204.7477 
    8360    981.73569     126.7724   -12246.303    6472.7559    6472.7559 
    8370    1077.3366    139.11742   -12258.664     6475.642     6475.642 
    8380    1097.5749    141.73082   -12261.278    6417.7046    6417.7046 
    8390    1025.4125    132.41243   -12251.951    6326.7589    6326.7589 
    8400    958.60564    123.78559   -12243.319     6078.383     6078.383 
    8410    951.76727    122.90255   -12242.439    5723.5516    5723.5516 
    8420     970.0279    125.26056   -12244.802    5589.6219    5589.6219 
    8430    960.97425    124.09146   -12243.632    5791.0006    5791.0006 
    8440    936.69917    120.95679   -12240.488    6022.6507    6022.6507 
    8450    981.84645     126.7867   -12246.323    5963.0104    5963.0104 
    8460    1043.9698    134.80875   -12254.357     5908.922     5908.922 
    8470    1017.2182    131.35429   -12250.892    6140.0319    6140.0319 
    8480    997.77127    128.84309   -12248.375    6302.6101    6302.6101 
    8490     1038.745    134.13406   -12253.682    6221.5508    6221.5508 
    8500    1001.8238    129.36639   -12248.905    6337.4046    6337.4046 
    8510    967.65635    124.95432   -12244.483    6440.4317    6440.4317 
    8520    1028.8842    132.86072   -12252.405    6207.7441    6207.7441 
    8530    1042.1441    134.57298    -12254.12    6011.5715    6011.5715 
    8540    976.58498    126.10728    -12245.64    6005.6813    6005.6813 
    8550    969.63195    125.20943   -12244.744     5848.557     5848.557 
    8560    1002.6703     129.4757   -12249.023    5672.7234    5672.7234 
    8570    959.76241    123.93497    -12243.47    5868.3666    5868.3666 
    8580    951.92141    122.92245   -12242.453    6096.0574    6096.0574 
    8590    1024.9999    132.35914   -12251.906    6140.3657    6140.3657 
    8600    1025.2731    132.39443   -12251.937    6288.0453    6288.0453 
    8610    986.26026    127.35666   -12246.889    6364.6687    6364.6687 
    8620      1005.69    129.86564   -12249.407    6091.7553    6091.7553 
    8630    1002.9759    129.51517   -12249.059    5887.3331    5887.3331 
    8640    951.00043    122.80353   -12242.338    5959.8944    5959.8944 
    8650    948.41103    122.46916   -12242.001    6049.9506    6049.9506 
    8660    1017.9726     131.4517   -12250.995    6016.0786    6016.0786 
    8670    1047.6362    135.28219   -12254.825    6122.9032    6122.9032 
    8680    1031.5751    133.20821   -12252.745     6233.943     6233.943 
    8690    1021.6403    131.92531   -12251.468    6100.5466    6100.5466 
    8700    980.57213    126.62215    -12246.16     5988.765     5988.765 
    8710    942.97041     121.7666   -12241.302    5907.7698    5907.7698 
    8720    945.76609    122.12761   -12241.662      5833.86      5833.86 
    8730    987.90984    127.56967   -12247.112    5846.8182    5846.8182 
    8740    997.62037     128.8236   -12248.363    6083.5665    6083.5665 
    8750    1002.0306    129.39309   -12248.927    6212.5396    6212.5396 
    8760    1046.6523    135.15513   -12254.701    6100.0836    6100.0836 
    8770    1027.0193    132.61991   -12252.162    6174.2895    6174.2895 
    8780    973.15378    125.66421   -12245.194     6301.713     6301.713 
    8790    1000.9894    129.25865   -12248.798    6144.2976    6144.2976 
    8800    1025.6663    132.44519   -12251.994    6032.5382    6032.5382 
    8810    970.00677    125.25783   -12244.788    6210.7115    6210.7115 
    8820     997.0349      128.748   -12248.284    6155.7288    6155.7288 
    8830      1054.88    136.21759   -12255.771    5935.1432    5935.1432 
    8840    981.25664    126.71054   -12246.247    5989.6123    5989.6123 
    8850    922.72471    119.15226   -12238.679    5994.4496    5994.4496 
    8860      979.752    126.51624   -12246.061    5833.3976    5833.3976 
    8870    985.97115    127.31933   -12246.865    5978.7868    5978.7868 
    8880    943.74047    121.86604   -12241.391    6251.9986    6251.9986 
    8890    1027.8333    132.72502   -12252.268    6075.0148    6075.0148 
    8900    1077.9838      139.201   -12258.753    5989.9751    5989.9751 
    8910    1001.0102    129.26133   -12248.793    6225.1785    6225.1785 
    8920    984.84894    127.17442   -12246.708    6172.4134    6172.4134 
    8930    1012.8915    130.79558   -12250.345    5975.5247    5975.5247 
    8940    956.84244    123.55791   -12243.091    6091.0311    6091.0311 
    8950    958.49772    123.77166   -12243.302     6149.084     6149.084 
    8960    1037.8785    134.02217   -12253.573     5968.516     5968.516 
    8970    1005.5247     129.8443   -12249.383    6061.7417    6061.7417 
    8980    965.20695    124.63803   -12244.165    6194.5605    6194.5605 
    8990    1026.7855    132.58971   -12252.137    6026.3655    6026.3655 
    9000    1008.5169    130.23068   -12249.776    6044.7736    6044.7736 
    9010    937.05546     121.0028   -12240.527    6224.2581    6224.2581 
    9020    999.92843    129.12164   -12248.661    6055.2737    6055.2737 
    9030    1051.4111    135.76964   -12255.325     5900.981     5900.981 
    9040    954.86331    123.30234    -12242.83    6178.4061    6178.4061 
    9050    963.11145    124.36743   -12243.895    6146.0388    6146.0388 
    9060    1073.3587    138.60376   -12258.161    5801.1845    5801.1845 
    9070    1006.2948    129.94373   -12249.485    5968.5549    5968.5549 
    9080    914.28011     118.0618   -12237.582    6235.6896    6235.6896 
    9090     996.9079     128.7316   -12248.277    6060.6127    6060.6127 
    9100    1026.0577    132.49573   -12252.045    6005.1233    6005.1233 
    9110    958.94964    123.83002   -12243.357    6199.4292    6199.4292 
    9120     996.3948    128.66534   -12248.204    6129.3929    6129.3929 
    9130    1036.1886    133.80395   -12253.354    6075.7266    6075.7266 
    9140    980.71022    126.63998   -12246.171    6296.1293    6296.1293 
    9150    999.47089    129.06256   -12248.594    6283.7399    6283.7399 
    9160    1082.3126    139.75998   -12259.314    6045.2383    6045.2383 
    9170    1020.3951    131.76452   -12251.305    6112.7582    6112.7582 
    9180    940.30219    121.42205   -12240.947    6209.8916    6209.8916 
    9190    987.16367    127.47332   -12247.017    5990.5369    5990.5369 
    9200    999.65021    129.08572    -12248.63    5903.4226    5903.4226 
    9210    957.12873    123.59488   -12243.126    5974.2249    5974.2249 
    9220    978.02486    126.29322   -12245.833    5869.3695    5869.3695 
    9230    991.93236     128.0891   -12247.634     5816.782     5816.782 
    9240    962.68816    124.31277    -12243.84    6032.7646    6032.7646 
    9250    1028.0403    132.75176   -12252.295    6064.0921    6064.0921 
    9260     1056.421    136.41658   -12255.966    6073.6624    6073.6624 
    9270     982.7942    126.90908   -12246.441    6213.5976    6213.5976 
    9280     966.5415    124.81036   -12244.346    6128.2546    6128.2546 
    9290    985.27225    127.22908   -12246.773     5928.904     5928.904 
    9300    958.80043    123.81075   -12243.347    5956.2388    5956.2388 
    9310    964.70108     124.5727   -12244.102     6091.962     6091.962 
    9320    1051.1498    135.73591   -12255.284    6079.8625    6079.8625 
    9330     1055.223    136.26189   -12255.806    6219.3917    6219.3917 
    9340    1007.9498    130.15745   -12249.689    6418.4353    6418.4353 
    9350    1018.8115    131.56003   -12251.102    6335.7002    6335.7002 
    9360    1003.2106    129.54548   -12249.089    6095.6637    6095.6637 
    9370    939.04976    121.26033   -12240.795    5888.7157    5888.7157 
    9380     916.4835    118.34633    -12237.88    5702.0708    5702.0708 
    9390    946.32932    122.20034   -12241.739    5648.4188    5648.4188 
    9400    986.63478    127.40502   -12246.941    5800.9198    5800.9198 
    9410    1046.9937    135.19922   -12254.743    5996.9953    5996.9953 
    9420    1055.3401      136.277    -12255.82    6310.3882    6310.3882 
    9430    1026.5071    132.55378   -12252.086     6618.633     6618.633 
    9440    1055.9882    136.36069   -12255.901    6640.6965    6640.6965 
    9450    1063.4062    137.31859   -12256.866    6474.1764    6474.1764 
    9460    990.00627    127.84039   -12247.375    6253.7857    6253.7857 
    9470    953.13964    123.07976   -12242.613    5868.1864    5868.1864 
    9480    965.68641    124.69994   -12244.246    5470.8367    5470.8367 
    9490    917.53123    118.48162   -12238.017    5427.6531    5427.6531 
    9500    902.83076    116.58333   -12236.112    5617.8957    5617.8957 
    9510    987.87953    127.56576   -12247.111    5772.5588    5772.5588 
    9520    1013.8405    130.91812   -12250.462    6135.3525    6135.3525 
    9530    994.55714    128.42804   -12247.958    6469.8804    6469.8804 
    9540    1054.6355    136.18602    -12255.73    6389.5877    6389.5877 
    9550     1064.638    137.47765   -12257.026    6275.6107    6275.6107 
    9560    978.11353    126.30467   -12245.835    6281.4351    6281.4351 
    9570    974.22101    125.80202   -12245.333    6159.7448    6159.7448 
    9580     1047.381    135.24924   -12254.798    6010.3688    6010.3688 
    9590    1022.4917    132.03526   -12251.578     6164.553     6164.553 
    9600    961.58993    124.17096     -12243.7     6264.987     6264.987 
    9610    988.14861     127.6005   -12247.142    5976.9571    5976.9571 
    9620    988.53124    127.64991   -12247.195    5747.6236    5747.6236 
    9630    926.64584     119.6586   -12239.191    5750.4596    5750.4596 
    9640    923.17182    119.20999   -12238.744    5743.1563    5743.1563 
    9650    978.76587     126.3889    -12245.93    5828.7092    5828.7092 
    9660    1023.0358    132.10552   -12251.646    6117.4876    6117.4876 
    9670    1049.8589    135.56921    -12255.11    6458.4134    6458.4134 
    9680    1050.1768    135.61026   -12255.151     6671.239     6671.239 
    9690    1038.1152    134.05273   -12253.588    6584.9092    6584.9092 
    9700      1055.93    136.35318   -12255.899    6123.2148    6123.2148 
    9710     1004.048     129.6536   -12249.199    5832.6953    5832.6953 
    9720    902.17271    116.49836   -12236.022     5958.619     5958.619 
    9730    947.33502    122.33021   -12241.864    5918.7845    5918.7845 
    9740     1037.366    133.95599   -12253.512     5748.054     5748.054 
    9750     962.9773    124.35011   -12243.886    6041.5995    6041.5995 
    9760    926.56512    119.64817   -12239.167    6376.5456    6376.5456 
    9770    1078.2137     139.2307   -12258.783    6178.1837    6178.1837 
    9780    1102.1465    142.32115   -12261.876    6155.4277    6155.4277 
    9790    970.87989    125.37058   -12244.895    6336.9792    6336.9792 
    9800    973.99767    125.77318   -12245.309      5997.48      5997.48 
    9810    1011.5492    130.62224   -12250.176    5584.6912    5584.6912 
    9820    920.70168    118.89102   -12238.421    5726.4124    5726.4124 
    9830    909.12045    117.39553   -12236.924    5888.9939    5888.9939 
    9840    999.41008    129.05471   -12248.602    5849.8542    5849.8542 
    9850    1011.4244    130.60613   -12250.148    6015.7113    6015.7113 
    9860    990.87657    127.95277   -12247.483    6276.4337    6276.4337 
    9870    1039.4337    134.22299   -12253.766     6316.589     6316.589 
    9880    1047.1355    135.21753   -12254.763     6362.018     6362.018 
    9890     999.9913    129.12976   -12248.662    6393.3204    6393.3204 
    9900    1003.4243    129.57307   -12249.115    6070.0887    6070.0887 
    9910    981.36152    126.72408   -12246.267     5814.627     5814.627 
    9920    928.35636    119.87948   -12239.408    5930.5144    5930.5144 
    9930    969.80697    125.23203    -12244.77    6021.7147    6021.7147 
    9940    1026.2461    132.52007   -12252.067    6053.8693    6053.8693 
    9950     1008.173    130.18628   -12249.721    6251.4806    6251.4806 
    9960    1019.8783    131.69778   -12251.237    6288.1272    6288.1272 
    9970    1030.0689    133.01371   -12252.557    6182.7801    6182.7801 
    9980    993.97738    128.35318   -12247.889    6228.0184    6228.0184 
    9990    987.70255     127.5429   -12247.075    6301.6541    6301.6541 
   10000    1038.4807    134.09993   -12253.646    6118.2853    6118.2853 
Loop time of 21.2869 on 1 procs for 10000 steps with 1000 atoms

Performance: 20.294 ns/day, 1.183 hours/ns, 469.772 timesteps/s
99.8% CPU use with 1 MPI tasks x no OpenMP threads

MPI task timing breakdown:
Section |  min time  |  avg time  |  max time  |%varavg| %total
---------------------------------------------------------------
Pair    | 18.713     | 18.713     | 18.713     |   0.0 | 87.91
Neigh   | 1.5728     | 1.5728     | 1.5728     |   0.0 |  7.39
Comm    | 0.13906    | 0.13906    | 0.13906    |   0.0 |  0.65
Output  | 0.721      | 0.721      | 0.721      |   0.0 |  3.39
Modify  | 0.10358    | 0.10358    | 0.10358    |   0.0 |  0.49
Other   |            | 0.03745    |            |       |  0.18

Nlocal:    1000 ave 1000 max 1000 min
Histogram: 1 0 0 0 0 0 0 0 0 0
Nghost:    2013 ave 2013 max 2013 min
Histogram: 1 0 0 0 0 0 0 0 0 0
Neighs:    0 ave 0 max 0 min
Histogram: 1 0 0 0 0 0 0 0 0 0
FullNghs:  32966 ave 32966 max 32966 min
Histogram: 1 0 0 0 0 0 0 0 0 0

Total # of neighbors = 32966
Ave neighs/atom = 32.966
Neighbor list builds = 1000
Dangerous builds not checked

Total wall time: 0:00:21
