
# Define the lattice
variable	lattice_constant equal 6.215
lattice		diamond ${lattice_constant}
lattice		diamond 6.215
Lattice spacing in x,y,z = 6.215 6.215 6.215

# Define region
# multiples of lattice spacing
region 		simbox block 0 5 0 5 0 5

# Create Atoms
create_box 	1 simbox
Created orthogonal box = (0 0 0) to (31.075 31.075 31.075)
  1 by 1 by 1 MPI processor grid
create_atoms 	1 box
Created 1000 atoms
  Time spent = 0.00102496 secs
mass		1 18.015

velocity	all create 600.0 97287

# Define Interatomic Potential
pair_style	sw
pair_coeff	* * mW.sw mW
Reading potential file mW.sw with DATE: 2019-02-27

neighbor 	2.0 bin
neigh_modify	delay 10 check no

# Pressure computations
compute		total_press all pressure thermo_temp
compute		peratom all stress/atom NULL
compute		p all reduce sum c_peratom[1] c_peratom[2] c_peratom[3]
variable	press equal -(c_p[1]+c_p[2]+c_p[3])/(3*vol)

# Density computations
variable	total_mass equal mass(all)
variable	v equal vol
print 		${total_mass}
print 		18014.9999999997
18014.9999999997
print		$v
print		30007.748546875
30007.748546875

variable 	density equal v_total_mass/(v_v*18.015)
print 		${density}
print 		0.0333247260599337
0.0333247260599337


# Run equilibration
thermo_style	custom step temp ke pe c_total_press v_press
thermo		10
dump		1 all atom 10 ${simname}.dump
dump		1 all atom 10 mW_liquid_6.215.dump

fix 		1 all nve
#temp 300.0 300.0 100.0 iso 0.0 0.0 1000.0
timestep	0.0005
run		10000
Neighbor list info ...
  update every 1 steps, delay 10 steps, check no
  max neighbors/atom: 2000, page size: 100000
  master list distance cutoff = 6.3065
  ghost atom cutoff = 6.3065
  binsize = 3.15325, bins = 10 10 10
  1 neighbor lists, perpetual/occasional/extra = 1 0 0
  (1) pair sw, perpetual
      attributes: full, newton on
      pair build: full/bin/atomonly
      stencil: full/bin/3d
      bin: standard
Per MPI rank memory allocation (min/avg/max) = 4.438 | 4.438 | 4.438 Mbytes
Step Temp KinEng PotEng c_total_press v_press 
       0          600    77.478531   -12377.274   -9457.9248   -9457.9248 
      10    358.66201    46.314343   -12346.051   -9085.9246   -9085.9246 
      20      172.507    22.275981   -12321.985   -9181.4854   -9181.4854 
      30    322.44731    41.637907   -12341.406   -10107.404   -10107.404 
      40    274.30472    35.421211   -12335.175   -10224.941   -10224.941 
      50    140.02228      18.0812   -12317.794   -9832.0071   -9832.0071 
      60    293.50493    37.900551   -12337.655   -10032.269   -10032.269 
      70       366.07    47.270943   -12347.036   -9929.8833   -9929.8833 
      80    251.10104    32.424899   -12332.147   -9313.4106   -9313.4106 
      90    333.47531    43.061962   -12342.807   -9368.7241   -9368.7241 
     100    411.52945    53.141163   -12352.911    -9666.124    -9666.124 
     110     259.9169      33.5633   -12333.293    -9481.411    -9481.411 
     120    239.72628    30.956067   -12330.687   -9601.4526   -9601.4526 
     130     348.9986    45.066497   -12344.831   -9963.5861   -9963.5861 
     140    284.19071    36.697798   -12336.439   -9741.3946   -9741.3946 
     150     243.6129     31.45795   -12331.187   -9548.4069   -9548.4069 
     160    342.33232    44.205676   -12343.965   -9822.2235   -9822.2235 
     170    313.36776    40.465456   -12340.215   -9760.1515   -9760.1515 
     180    239.42641    30.917344   -12330.644   -9463.9408   -9463.9408 
     190     324.7173    41.931033   -12341.681   -9623.5844   -9623.5844 
     200    361.06359     46.62446   -12346.383   -9771.5135   -9771.5135 
     210    268.86728     34.71907   -12334.453   -9565.8037   -9565.8037 
     220    270.40741    34.917948   -12334.657   -9584.6533   -9584.6533 
     230    328.73613    42.449988   -12342.205   -9788.0013   -9788.0013 
     240    294.69847    38.054674   -12337.797   -9702.0713   -9702.0713 
     250    274.11755    35.397041   -12335.135   -9611.7377   -9611.7377 
     260    314.24386    40.578588   -12340.329   -9733.3152   -9733.3152 
     270     302.4777    39.059213   -12338.805   -9688.7893   -9688.7893 
     280    281.23205    36.315744   -12336.053   -9537.2439   -9537.2439 
     290    326.55785    42.168704   -12341.917   -9617.6182   -9617.6182 
     300     339.2017    43.801416   -12343.553   -9694.6229   -9694.6229 
     310    284.55573    36.744933   -12336.485   -9571.3244   -9571.3244 
     320    275.17038    35.532995   -12335.273   -9552.5611   -9552.5611 
     330    313.95084     40.54075   -12340.291    -9700.041    -9700.041 
     340      304.269    39.290525   -12339.037   -9741.2199   -9741.2199 
     350    270.79772     34.96835   -12334.708   -9733.4865   -9733.4865 
     360    282.73382    36.509668   -12336.254   -9838.5187   -9838.5187 
     370    300.07708    38.749219   -12338.497   -9859.5855   -9859.5855 
     380    289.98214     37.44565   -12337.189   -9705.4584   -9705.4584 
     390    295.46425     38.15356   -12337.896   -9596.5626   -9596.5626 
     400    321.43697    41.507441   -12341.254   -9561.6417   -9561.6417 
     410    328.36231    42.401716   -12342.147   -9466.9517   -9466.9517 
     420    323.99192    41.837363   -12341.582   -9432.6526   -9432.6526 
     430    316.38429    40.854984   -12340.601   -9558.2525   -9558.2525 
     440    292.98438    37.833332   -12337.578   -9703.6932   -9703.6932 
     450    272.41972      35.1778   -12334.921   -9795.7945   -9795.7945 
     460    268.26166    34.640865   -12334.385   -9852.8744   -9852.8744 
     470    271.34021    35.038402   -12334.781     -9829.79     -9829.79 
     480    292.07722    37.716189    -12337.46   -9756.0956   -9756.0956 
     490    316.34568    40.849997   -12340.598   -9690.1521   -9690.1521 
     500    307.19931    39.668919   -12339.413   -9580.1937   -9580.1937 
     510    302.90509    39.114403   -12338.856   -9483.2671   -9483.2671 
     520    327.08781    42.237138   -12341.985   -9513.5348   -9513.5348 
     530     320.6298     41.40321   -12341.151    -9602.031    -9602.031 
     540    282.75281    36.512121   -12336.254   -9655.8819   -9655.8819 
     550    276.03379    35.644488   -12335.387   -9701.6073   -9701.6073 
     560    296.55844    38.294853   -12338.041   -9737.8712   -9737.8712 
     570    306.44481     39.57149   -12339.317   -9726.9679   -9726.9679 
     580    305.82039    39.490857   -12339.236   -9692.2206   -9692.2206 
     590    300.99531     38.86779   -12338.613   -9669.7113   -9669.7113 
     600    295.12872    38.110233   -12337.854   -9648.8907   -9648.8907 
     610     300.3968    38.790504   -12338.535   -9606.8127   -9606.8127 
     620    308.72715     39.86621   -12339.612   -9562.3957   -9562.3957 
     630    309.44804      39.9593   -12339.704   -9580.3604   -9580.3604 
     640     310.4892    40.093745   -12339.839   -9657.7108   -9657.7108 
     650    300.20485    38.765718   -12338.512   -9690.9117   -9690.9117 
     660    279.76194    36.125907   -12335.867   -9678.0924   -9678.0924 
     670    290.79146    37.550158   -12337.294   -9735.0245   -9735.0245 
     680    309.18368    39.925162   -12339.674   -9780.2733   -9780.2733 
     690    290.02098    37.450665   -12337.195   -9707.6081   -9707.6081 
     700    278.51525     35.96492   -12335.706   -9642.2007   -9642.2007 
     710    303.87408    39.239529   -12338.986   -9648.9953   -9648.9953 
     720     310.3728    40.078714   -12339.826   -9627.6209   -9627.6209 
     730      294.748     38.06107   -12337.803   -9615.5964   -9615.5964 
     740    304.20675    39.282486   -12339.027   -9684.9317   -9684.9317 
     750    310.01253    40.032192    -12339.78   -9704.0556   -9704.0556 
     760    290.79598    37.550742   -12337.293    -9640.795    -9640.795 
     770    292.49507    37.770147   -12337.513   -9642.1059   -9642.1059 
     780    308.99439    39.900719   -12339.648   -9681.5356   -9681.5356 
     790    300.90106     38.85562   -12338.599    -9657.735    -9657.735 
     800     299.2505    38.642481   -12338.385   -9655.4962   -9655.4962 
     810    310.21435    40.058253   -12339.806   -9660.7223   -9660.7223 
     820    292.86192    37.817518   -12337.561   -9562.9132   -9562.9132 
     830    289.61616    37.398391   -12337.138   -9513.6496   -9513.6496 
     840    328.99206    42.483036   -12342.232   -9621.1312   -9621.1312 
     850    322.86655    41.692044   -12341.441   -9681.7167   -9681.7167 
     860    273.39337    35.303528   -12335.043   -9686.1945   -9686.1945 
     870    276.31892    35.681307   -12335.424   -9792.8937   -9792.8937 
     880    299.48354    38.672575   -12338.421   -9853.3097   -9853.3097 
     890    286.90515    37.048316   -12336.791    -9757.034    -9757.034 
     900    290.11909    37.463335   -12337.206   -9682.8719   -9682.8719 
     910    308.85221    39.882359   -12339.631   -9633.9768   -9633.9768 
     920    295.10644    38.107356   -12337.849   -9509.8668   -9509.8668 
     930    307.56338    39.715932   -12339.457   -9512.3197   -9512.3197 
     940     345.1139    44.564863   -12344.317   -9645.5414   -9645.5414 
     950    310.50033    40.095182   -12339.841   -9633.1143   -9633.1143 
     960    265.23866    34.250503   -12333.987   -9594.4231   -9594.4231 
     970    298.28969    38.518412   -12338.265   -9716.5756   -9716.5756 
     980    314.72353    40.640528    -12340.39    -9757.891    -9757.891 
     990    281.45566    36.344618   -12336.085   -9680.9861   -9680.9861 
    1000    285.58667     36.87806   -12336.622   -9727.7252   -9727.7252 
    1010    298.98557    38.608272   -12338.357   -9774.9447   -9774.9447 
    1020    282.20203    36.440998   -12336.182   -9671.4269   -9671.4269 
    1030    301.67576    38.955658   -12338.699   -9606.9206   -9606.9206 
    1040    333.98282    43.127497   -12342.878   -9598.2149   -9598.2149 
    1050    313.00921    40.419156   -12340.162   -9522.4181   -9522.4181 
    1060    300.47648    38.800794   -12338.543   -9534.8303   -9534.8303 
    1070    307.13087    39.660081   -12339.408   -9644.2768   -9644.2768 
    1080    286.15304    36.951195   -12336.693     -9689.07     -9689.07 
    1090    288.01718    37.191913   -12336.934   -9761.6213   -9761.6213 
    1100    313.88511    40.532261   -12340.283   -9883.2162   -9883.2162 
    1110    279.37423    36.075841   -12335.821    -9829.531    -9829.531 
    1120    242.74209    31.345501    -12331.08   -9658.4175   -9658.4175 
    1130    302.57631    39.071947   -12338.818   -9621.6783   -9621.6783 
    1140    351.82873    45.431955   -12345.185   -9592.9651   -9592.9651 
    1150    319.63236    41.274409   -12341.017   -9503.3041   -9503.3041 
    1160     299.1652    38.631467   -12338.374    -9556.135    -9556.135 
    1170     303.0609    39.134522   -12338.882   -9692.9499   -9692.9499 
    1180    286.09997    36.944342   -12336.688   -9723.3001   -9723.3001 
    1190    281.76511    36.384578   -12336.127   -9714.9828   -9714.9828 
    1200    296.70659    38.313984   -12338.061   -9726.2417   -9726.2417 
    1210    293.81858    37.941053   -12337.685   -9667.3089   -9667.3089 
    1220    299.37046    38.657972     -12338.4   -9567.4062   -9567.4062 
    1230    332.88375    42.985573   -12342.732   -9523.8484   -9523.8484 
    1240    341.95116    44.156456   -12343.906   -9533.8888   -9533.8888 
    1250     304.4537    39.314375   -12339.058   -9576.9535   -9576.9535 
    1260     271.6954    35.084267   -12334.825   -9680.1477   -9680.1477 
    1270    276.15777    35.660497   -12335.404   -9807.2384   -9807.2384 
    1280    293.79145     37.93755   -12337.684   -9862.2008   -9862.2008 
    1290    290.54167    37.517903   -12337.264   -9810.3494   -9810.3494 
    1300    275.85199    35.621012   -12335.363    -9726.234    -9726.234 
    1310    289.50071    37.383483   -12337.126    -9686.138    -9686.138 
    1320    320.12171      41.3376   -12341.085   -9639.7138   -9639.7138 
    1330     321.8749    41.563991   -12341.311   -9546.8103   -9546.8103 
    1340    301.03126    38.872433   -12338.615   -9508.0138   -9508.0138 
    1350    300.71875    38.832078   -12338.576   -9612.4879   -9612.4879 
    1360    303.15339    39.146465   -12338.894   -9719.7721   -9719.7721 
    1370    284.64351    36.756268   -12336.499    -9698.735    -9698.735 
    1380    287.65505    37.145152   -12336.887   -9652.3097   -9652.3097 
    1390    319.76822    41.291953   -12341.039   -9649.3007   -9649.3007 
    1400    328.98725    42.482415   -12342.231   -9632.8482   -9632.8482 
    1410    300.62622     38.82013   -12338.563   -9588.5258   -9588.5258 
    1420    285.94508    36.924342   -12336.667   -9615.3869   -9615.3869 
    1430    294.32804     38.00684   -12337.754    -9728.218    -9728.218 
    1440    282.43279    36.470796   -12336.217   -9803.7445   -9803.7445 
    1450    260.34523     33.61861   -12333.359   -9777.7183   -9777.7183 
    1460    279.21668    36.055496   -12335.797   -9703.5705   -9703.5705 
    1470    331.83165    42.849715   -12342.597   -9636.3093   -9636.3093 
    1480    353.16629    45.604676   -12345.354   -9558.1369   -9558.1369 
    1490    319.71576    41.285179   -12341.029   -9481.3928   -9481.3928 
    1500    288.51854    37.256654   -12336.998   -9531.1744   -9531.1744 
    1510    292.92816    37.826073   -12337.571   -9713.5496   -9713.5496 
    1520     294.1561    37.984637   -12337.731   -9834.8963   -9834.8963 
    1530    274.20228    35.407983   -12335.151   -9791.4545   -9791.4545 
    1540    275.42716    35.566153   -12335.307   -9689.2136   -9689.2136 
    1550    308.75882      39.8703   -12339.617   -9615.1367   -9615.1367 
    1560     324.9927    41.966595   -12341.713   -9541.3757   -9541.3757 
    1570    322.91995    41.698939   -12341.444   -9536.0041   -9536.0041 
    1580    316.48057    40.867416   -12340.614     -9632.45     -9632.45 
    1590    289.96827    37.443859   -12337.189   -9736.7054   -9736.7054 
    1600    257.93437    33.307293   -12333.048   -9786.4751   -9786.4751 
    1610    266.27444    34.384255   -12334.126   -9803.6205   -9803.6205 
    1620    302.55286    39.068919   -12338.816   -9769.2363   -9769.2363 
    1630     318.5177    41.130473   -12340.877   -9664.6584   -9664.6584 
    1640    315.83058    40.783483   -12340.528   -9554.8285   -9554.8285 
    1650    310.54132    40.100475   -12339.844   -9481.3631   -9481.3631 
    1660    314.30171    40.586058    -12340.33    -9492.649    -9492.649 
    1670    321.43606    41.507322   -12341.254    -9593.659    -9593.659 
    1680    304.41756    39.309709   -12339.056   -9700.0012   -9700.0012 
    1690    274.44239    35.438989   -12335.181    -9786.489    -9786.489 
    1700    266.53671    34.418122   -12334.162   -9864.8073   -9864.8073 
    1710    270.17882     34.88843   -12334.633   -9866.8216   -9866.8216 
    1720    275.56577    35.584052   -12335.327   -9785.5099   -9785.5099 
    1730    301.30219    38.907418   -12338.652   -9702.5796   -9702.5796 
    1740    321.16769    41.472668   -12341.221   -9595.2952   -9595.2952 
    1750    307.94827    39.765633   -12339.508   -9440.7457   -9440.7457 
    1760    320.35299    41.367464   -12341.109   -9412.3689   -9412.3689 
    1770    359.30784    46.397739   -12346.149   -9537.1763   -9537.1763 
    1780    330.74705    42.709659   -12342.458   -9590.8034   -9590.8034 
    1790     265.3557    34.265617   -12334.003   -9592.6278   -9592.6278 
    1800    266.34868     34.39384   -12334.135   -9707.7493   -9707.7493 
    1810    301.47259    38.929422   -12338.678   -9828.9851   -9828.9851 
    1820    299.96524    38.734777    -12338.48   -9827.3863   -9827.3863 
    1830    284.60398    36.751164   -12336.494   -9786.0222   -9786.0222 
    1840    283.54064    36.613854   -12336.358   -9739.2761   -9739.2761 
    1850    293.14683     37.85431   -12337.598    -9658.692    -9658.692 
    1860    310.61133    40.109516   -12339.855   -9587.0968   -9587.0968 
    1870    317.47749    40.996149   -12340.742   -9553.2585   -9553.2585 
    1880    310.54603    40.101083   -12339.845   -9576.3384   -9576.3384 
    1890    308.32921    39.814823    -12339.56   -9667.7809   -9667.7809 
    1900    295.38381    38.143173   -12337.889   -9732.6058   -9732.6058 
    1910     275.7009    35.601501   -12335.343   -9745.8955   -9745.8955 
    1920    286.23808    36.962177   -12336.707   -9792.0248   -9792.0248 
    1930    297.85944    38.462852   -12338.211   -9786.2113   -9786.2113 
    1940    280.64495    36.239931   -12335.982   -9654.9139   -9654.9139 
    1950    287.67049    37.147145   -12336.888   -9568.9557   -9568.9557 
    1960     326.4318    42.152428   -12341.901   -9591.9505   -9591.9505 
    1970    326.68946    42.185699   -12341.932   -9555.0549   -9555.0549 
    1980    307.56206    39.715761   -12339.457   -9513.1139   -9513.1139 
    1990    316.97772    40.931613   -12340.678   -9611.7196   -9611.7196 
    2000    308.67531    39.859516   -12339.608   -9712.0175   -9712.0175 
    2010    269.10796    34.750149    -12334.49   -9704.9892   -9704.9892 
    2020    271.04066     34.99972   -12334.741   -9735.3215   -9735.3215 
    2030    304.26159    39.289569   -12339.038   -9791.1633   -9791.1633 
    2040    305.29958    39.423606   -12339.169   -9723.2228   -9723.2228 
    2050      295.663    38.179225   -12337.921   -9596.0344   -9596.0344 
    2060    312.78824    40.390622   -12340.135   -9547.1614   -9547.1614 
    2070    329.40391    42.536219   -12342.284   -9567.4347   -9567.4347 
    2080    312.25221    40.321404   -12340.066   -9601.6698   -9601.6698 
    2090    290.38755    37.498001   -12337.241   -9686.2232   -9686.2232 
    2100    281.89677    36.401579   -12336.146   -9778.2315   -9778.2315 
    2110    277.00742    35.770213   -12335.514   -9806.3348   -9806.3348 
    2120    282.33303    36.457914   -12336.202   -9794.7415   -9794.7415 
    2130    296.69643    38.312672   -12338.058   -9753.2829   -9753.2829 
    2140    302.53954    39.067198   -12338.812     -9666.34     -9666.34 
    2150    303.62948    39.207944   -12338.951   -9590.9313   -9590.9313 
    2160    318.91098    41.181257   -12340.927    -9586.169    -9586.169 
    2170    322.66286     41.66574   -12341.413    -9575.618    -9575.618 
    2180    299.33255    38.653078   -12338.395   -9544.5063   -9544.5063 
    2190    296.88484    38.337002    -12338.08    -9610.043    -9610.043 
    2200    311.74165    40.255475   -12340.004   -9716.5518   -9716.5518 
    2210    293.36302    37.882227   -12337.627   -9740.4269   -9740.4269 
    2220    271.17222    35.016708   -12334.757   -9764.2229   -9764.2229 
    2230    283.93517    36.664799   -12336.411   -9823.6808   -9823.6808 
    2240    287.15696    37.080832   -12336.826    -9765.316    -9765.316 
    2250    285.21225     36.82971    -12336.57    -9641.307    -9641.307 
    2260    320.84794    41.431378   -12341.178   -9607.2329   -9607.2329 
    2270    335.71939    43.351742   -12343.101   -9561.0084   -9561.0084 
    2280    302.94711    39.119829   -12338.861   -9487.7733   -9487.7733 
    2290    301.90527    38.985294   -12338.728   -9570.7981   -9570.7981 
    2300    314.76367    40.645712   -12340.396   -9705.9801   -9705.9801 
    2310    277.06183     35.77724   -12335.519   -9708.1877   -9708.1877 
    2320     268.8289    34.714114   -12334.452    -9735.371    -9735.371 
    2330    317.53639    41.003755   -12340.754   -9816.1634   -9816.1634 
    2340    312.28784    40.326005   -12340.074   -9731.5963   -9731.5963 
    2350    277.30628    35.808805   -12335.547   -9613.0064   -9613.0064 
    2360    299.01739     38.61238   -12338.358   -9646.3698   -9646.3698 
    2370    315.50625    40.741601    -12340.49   -9649.3161   -9649.3161 
    2380    296.33371    38.265834   -12338.007   -9585.9301   -9585.9301 
    2390    308.35432    39.818067   -12339.563   -9627.9942   -9627.9942 
    2400    316.20125    40.831348    -12340.58   -9662.3975   -9662.3975 
    2410    292.79089    37.808347   -12337.548   -9623.7475   -9623.7475 
    2420     309.6767    39.988827   -12339.735   -9689.8532   -9689.8532 
    2430    311.45757    40.218791    -12339.97   -9724.1836   -9724.1836 
    2440    259.19428    33.469987   -12333.207   -9640.7151   -9640.7151 
    2450    276.03102    35.644129   -12335.385   -9709.0703   -9709.0703 
    2460    327.94376    42.347668   -12342.102   -9794.5064   -9794.5064 
    2470    289.91033    37.436377   -12337.179   -9624.1166   -9624.1166 
    2480    275.67707    35.598424   -12335.334    -9548.784    -9548.784 
    2490    340.76913    44.003819   -12343.758   -9710.6524   -9710.6524 
    2500    316.33286    40.848342   -12340.597   -9689.7169   -9689.7169 
    2510    256.60177    33.135214   -12332.868   -9627.7531   -9627.7531 
    2520    301.93545    38.989192   -12338.738   -9804.2411   -9804.2411 
    2530    307.85595    39.753711   -12339.506   -9801.7166   -9801.7166 
    2540    248.40898    32.077271    -12331.81    -9586.364    -9586.364 
    2550     300.0219    38.742094   -12338.485   -9615.8504   -9615.8504 
    2560     364.5811    47.078681   -12346.836   -9651.9028   -9651.9028 
    2570    312.40326    40.340909    -12340.08   -9450.2041   -9450.2041 
    2580    300.15286    38.759005   -12338.499   -9471.7672   -9471.7672 
    2590    331.06455    42.750659   -12342.505   -9671.1169   -9671.1169 
    2600    277.53719    35.838623   -12335.579    -9640.578    -9640.578 
    2610    263.48787    34.024422    -12333.76   -9663.4834   -9663.4834 
    2620    331.65944    42.827477   -12342.582   -9852.9509   -9852.9509 
    2630    304.80395    39.359603   -12339.108   -9782.2049   -9782.2049 
    2640    245.45083    31.695283   -12331.428   -9634.3926   -9634.3926 
    2650    296.22982    38.252418   -12338.001   -9759.5465   -9759.5465 
    2660    318.12668     41.07998   -12340.832   -9769.4274   -9769.4274 
    2670    274.57109    35.455607   -12335.192   -9584.5982   -9584.5982 
    2680    300.67103    38.825917    -12338.57   -9585.2601   -9585.2601 
    2690    329.59178    42.560478   -12342.312   -9597.5755   -9597.5755 
    2700    298.61017    38.559795   -12338.298   -9469.0662   -9469.0662 
    2710     321.4402    41.507857   -12341.252   -9557.5356   -9557.5356 
    2720    348.73097    45.031939   -12344.787    -9755.216    -9755.216 
    2730    277.95773    35.892928   -12335.634   -9722.1021   -9722.1021 
    2740    236.51408    30.541272   -12330.277   -9721.1639   -9721.1639 
    2750    283.73643    36.639136   -12336.388   -9866.4696   -9866.4696 
    2760    297.70951    38.443492    -12338.19   -9794.2696   -9794.2696 
    2770    289.49578    37.382846   -12337.122   -9582.1585   -9582.1585 
    2780    329.35143    42.529441   -12342.277   -9558.6314   -9558.6314 
    2790    341.10247    44.046864   -12343.796   -9578.9102   -9578.9102 
    2800    304.20623     39.28242   -12339.024   -9537.4809   -9537.4809 
    2810    289.50801    37.384426   -12337.128   -9591.3676   -9591.3676 
    2820    289.91649    37.437173   -12337.183   -9685.8082   -9685.8082 
    2830     285.4157    36.855982   -12336.599   -9706.9399   -9706.9399 
    2840    296.81501    38.327985   -12338.074    -9737.776    -9737.776 
    2850    298.14132    38.499253   -12338.245   -9747.5236   -9747.5236 
    2860    290.86227    37.559302   -12337.301   -9699.4854   -9699.4854 
    2870    312.81683    40.394314   -12340.141   -9709.2765   -9709.2765 
    2880    312.20777    40.315666   -12340.065   -9705.9976   -9705.9976 
    2890    270.46552    34.925452   -12334.664   -9588.8261   -9588.8261 
    2900    286.30842    36.971259   -12336.711   -9549.6789   -9549.6789 
    2910    348.44084    44.994474   -12344.747   -9652.7216   -9652.7216 
    2920    329.25328    42.516767   -12342.266   -9666.5228   -9666.5228 
    2930    264.75259    34.187736   -12333.925   -9626.5907   -9626.5907 
    2940    268.92721    34.726809   -12334.469   -9721.9141   -9721.9141 
    2950    297.08785    38.363217   -12338.112   -9808.8877   -9808.8877 
    2960    291.65401    37.661541   -12337.404   -9730.0317   -9730.0317 
    2970    306.91037    39.631608   -12339.375   -9634.0476   -9634.0476 
    2980    330.54789    42.683941   -12342.433   -9578.4502   -9578.4502 
    2990    310.50485    40.095766   -12339.839   -9502.6535   -9502.6535 
    3000    300.92451    38.858648     -12338.6   -9511.9106   -9511.9106 
    3010    321.71378    41.543185   -12341.292   -9631.1132   -9631.1132 
    3020    300.14757    38.758321   -12338.505   -9696.9532   -9696.9532 
    3030      261.569    33.776637   -12333.515   -9721.7355   -9721.7355 
    3040    279.43608    36.083828   -12335.828   -9797.5761   -9797.5761 
    3050    303.58192    39.201802    -12338.95   -9808.5647   -9808.5647 
    3060    297.65082    38.435913   -12338.179   -9731.8654   -9731.8654 
    3070     302.4975     39.06177   -12338.807   -9680.0395   -9680.0395 
    3080    303.60087    39.204249   -12338.951   -9623.7975   -9623.7975 
    3090    292.85769    37.816973   -12337.558   -9569.1228   -9569.1228 
    3100    312.52984    40.357255   -12340.103   -9619.8016   -9619.8016 
    3110    315.24787    40.708237   -12340.458   -9662.4739   -9662.4739 
    3120    275.62102    35.591186   -12335.331   -9646.1996   -9646.1996 
    3130    284.38599    36.723014   -12336.464   -9738.0193   -9738.0193 
    3140    321.76897    41.550311   -12341.302   -9817.7153   -9817.7153 
    3150      295.982    38.220417   -12337.964   -9683.8355   -9683.8355 
    3160    281.16525    36.307118   -12336.045   -9570.1844   -9570.1844 
    3170     322.4694    41.640759   -12341.391   -9591.6446   -9591.6446 
    3180    315.76038    40.774417   -12340.521   -9524.9183   -9524.9183 
    3190    288.71572    37.282116    -12337.02   -9487.8624   -9487.8624 
    3200    322.70271    41.670887   -12341.419   -9658.8015   -9658.8015 
    3210    325.48102    42.029652   -12341.782   -9772.1208   -9772.1208 
    3220    260.05067    33.580573   -12333.319   -9721.5063   -9721.5063 
    3230     254.0168    32.801415   -12332.541   -9763.5611   -9763.5611 
    3240    301.87307    38.981137   -12338.731   -9815.1801   -9815.1801 
    3250    305.14545    39.403702   -12339.148   -9676.8777   -9676.8777 
    3260    303.10416    39.140109   -12338.882   -9562.0129   -9562.0129 
    3270    321.63193    41.532616    -12341.28   -9568.5489   -9568.5489 
    3280    313.15971    40.438591   -12340.183   -9552.1681   -9552.1681 
    3290    302.56765    39.070829   -12338.813   -9567.7674   -9567.7674 
    3300    316.06135    40.813282   -12340.561     -9671.75     -9671.75 
    3310    297.96319     38.47625   -12338.223   -9705.4082   -9705.4082 
    3320    263.88879    34.076193   -12333.816   -9693.0726   -9693.0726 
    3330    280.30567    36.196119    -12335.94   -9760.6827   -9760.6827 
    3340    306.73207    39.608584   -12339.356   -9762.7632   -9762.7632 
    3350    304.26055    39.289434   -12339.033   -9648.0352   -9648.0352 
    3360    310.54502    40.100953   -12339.846   -9620.7713   -9620.7713 
    3370    311.80509    40.263667   -12340.011   -9651.6393   -9651.6393 
    3380    287.77164    37.160206   -12336.902   -9605.2187   -9605.2187 
    3390    292.04032    37.711425   -12337.453   -9607.3331   -9607.3331 
    3400    323.64483    41.792544   -12341.542   -9701.0636   -9701.0636 
    3410    304.10163    39.268912   -12339.016   -9682.5592   -9682.5592 
    3420    263.27062    33.996369   -12333.734   -9607.2548   -9607.2548 
    3430    292.04299    37.711769   -12337.456   -9688.7725   -9688.7725 
    3440    327.55512    42.297482   -12342.049   -9747.2651   -9747.2651 
    3450    300.75339    38.836552    -12338.58   -9636.9428   -9636.9428 
    3460    284.37985    36.722222   -12336.463   -9590.3547   -9590.3547 
    3470    308.53888    39.841899    -12339.59    -9684.643    -9684.643 
    3480    304.19109    39.280465   -12339.027   -9704.1792   -9704.1792 
    3490    286.17768    36.954376   -12336.695   -9665.3051   -9665.3051 
    3500    300.83879    38.847579   -12338.594   -9697.9906   -9697.9906 
    3510    298.01504    38.482946    -12338.23   -9673.4413   -9673.4413 
    3520    277.27424    35.804668   -12335.544   -9565.8633   -9565.8633 
    3530    305.37936    39.433907   -12339.178   -9547.6026   -9547.6026 
    3540    340.52564    43.972377   -12343.723   -9570.9577   -9570.9577 
    3550    321.16191    41.471921   -12341.216   -9544.1231   -9544.1231 
    3560    303.33146     39.16946   -12338.912    -9614.888    -9614.888 
    3570    301.06621    38.876946   -12338.624   -9754.0298   -9754.0298 
    3580    275.80175    35.614524   -12335.358   -9780.4521   -9780.4521 
    3590    267.89292     34.59325   -12334.334   -9749.2084   -9749.2084 
    3600     294.2027    37.990654   -12337.737   -9716.3073   -9716.3073 
    3610       304.51    39.321645   -12339.067   -9602.9862   -9602.9862 
    3620    307.33828    39.686864    -12339.43   -9505.2914   -9505.2914 
    3630    324.14033    41.856528   -12341.604   -9568.8355   -9568.8355 
    3640    314.50103    40.611796   -12340.358   -9681.9538   -9681.9538 
    3650    286.31796    36.972492   -12336.714   -9733.0678   -9733.0678 
    3660    284.52291    36.740695   -12336.485   -9762.1773   -9762.1773 
    3670    286.87951    37.045005   -12336.791   -9755.0177   -9755.0177 
    3680     283.2181    36.572204   -12336.315   -9704.4525   -9704.4525 
    3690    297.62717     38.43286   -12338.178    -9668.676    -9668.676 
    3700    307.46635    39.703401    -12339.45   -9638.8584   -9638.8584 
    3710    298.39738    38.532317   -12338.276   -9594.9784   -9594.9784 
    3720    301.35517     38.91426   -12338.658   -9590.4211   -9590.4211 
    3730    315.17374    40.698664   -12340.445   -9633.9445   -9633.9445 
    3740    309.73391    39.996213   -12339.742   -9629.5019   -9629.5019 
    3750    296.36726    38.270167   -12338.013   -9554.9664   -9554.9664 
    3760    303.90408    39.243403   -12338.987   -9543.4891   -9543.4891 
    3770    317.79693    41.037399   -12340.785   -9657.4397   -9657.4397 
    3780    297.87626    38.465025   -12338.212   -9747.7705   -9747.7705 
    3790    259.95727    33.568513   -12333.308    -9735.427    -9735.427 
    3800    275.65992    35.596209   -12335.337   -9743.2206   -9743.2206 
    3810    330.71139    42.705054   -12342.456   -9740.2615   -9740.2615 
    3820     326.2828    42.133187   -12341.881   -9563.7623   -9563.7623 
    3830    292.73986    37.801758   -12337.541   -9421.5375   -9421.5375 
    3840    313.77556    40.518116   -12340.264   -9536.3296   -9536.3296 
    3850    325.91668    42.085909   -12341.836   -9661.1624   -9661.1624 
    3860    286.08739    36.942718   -12336.684   -9666.5943   -9666.5943 
    3870    274.23805    35.412602   -12335.155   -9768.0369   -9768.0369 
    3880    286.11773    36.946636   -12336.694   -9878.4235   -9878.4235 
    3890     272.9626    35.247902    -12334.99    -9807.002    -9807.002 
    3900    281.14811    36.304904   -12336.047   -9716.0245   -9716.0245 
    3910    311.32176    40.201255    -12339.95   -9662.7282   -9662.7282 
    3920    304.40671    39.308308   -12339.052   -9530.6955   -9530.6955 
    3930     305.7442    39.481019   -12339.221   -9486.8369   -9486.8369 
    3940    342.39579    44.213872   -12343.964   -9605.7353   -9605.7353 
    3950    323.05385     41.71623   -12341.463   -9591.7163   -9591.7163 
    3960    280.92196    36.275702   -12336.013   -9525.2387   -9525.2387 
    3970    303.52046    39.193865    -12338.94   -9673.9802   -9673.9802 
    3980    309.80864    40.005864   -12339.757   -9804.7767   -9804.7767 
    3990    256.45805    33.116655   -12332.856   -9747.4061   -9747.4061 
    4000    258.38419    33.365379   -12333.104   -9770.6133   -9770.6133 
    4010    314.81587    40.652452   -12340.404   -9851.9453   -9851.9453 
    4020    307.73543    39.738149   -12339.484   -9697.7412   -9697.7412 
    4030     285.1221    36.818069   -12336.556   -9522.1529   -9522.1529 
    4040    324.79558     41.94114   -12341.689   -9570.8618   -9570.8618 
    4050    338.69681    43.736219   -12343.487   -9580.3023   -9580.3023 
    4060    298.36901    38.528654   -12338.269   -9498.8758   -9498.8758 
    4070    296.82358    38.329091   -12338.073   -9605.0709   -9605.0709 
    4080    306.94617     39.63623   -12339.386   -9754.4234   -9754.4234 
    4090    271.42992    35.049985   -12334.792   -9714.2987   -9714.2987 
    4100    267.63362    34.559766   -12334.299   -9696.5627   -9696.5627 
    4110    316.39352    40.856176   -12340.606   -9768.0168   -9768.0168 
    4120    316.14695    40.824336   -12340.572   -9666.1688   -9666.1688 
    4130    284.96308    36.797535   -12336.535   -9506.5128   -9506.5128 
    4140    319.03117    41.196778   -12340.943   -9584.9939   -9584.9939 
    4150    340.91894    44.023164   -12343.776   -9675.5552   -9675.5552 
    4160    283.22206    36.572715   -12336.314   -9599.8358   -9599.8358 
    4170    260.16681    33.595571   -12333.333   -9632.6086   -9632.6086 
    4180     304.1923     39.28062    -12339.03   -9780.7679   -9780.7679 
    4190    307.28752    39.680309   -12339.428   -9768.1883   -9768.1883 
    4200    279.62128    36.107743   -12335.848   -9705.2902   -9705.2902 
    4210    289.87547    37.431876   -12337.177   -9734.9657   -9734.9657 
    4220    301.54703    38.939035   -12338.685   -9665.1505   -9665.1505 
    4230    306.54995    39.585066   -12339.327   -9531.4478   -9531.4478 
    4240    335.70492    43.349874   -12343.098   -9544.7161   -9544.7161 
    4250    333.10341    43.013939   -12342.764   -9580.3368   -9580.3368 
    4260    283.98015    36.670609   -12336.411    -9572.674    -9572.674 
    4270     273.6466    35.336228   -12335.079   -9717.5482   -9717.5482 
    4280    286.04423    36.937144   -12336.686    -9886.755    -9886.755 
    4290     261.0653    33.711593   -12333.453   -9851.8165   -9851.8165 
    4300    265.76038    34.317873   -12334.057   -9792.6604   -9792.6604 
    4310    318.48842    41.126691   -12340.877   -9766.6653   -9766.6653 
    4320    319.36235    41.239543   -12340.986    -9526.639    -9526.639 
    4330    305.17956    39.408107   -12339.145   -9290.9507   -9290.9507 
    4340    357.49033    46.163043   -12345.913   -9417.8825   -9417.8825 
    4350    359.52423    46.425682    -12346.18   -9600.0848   -9600.0848 
    4360    268.54523    34.677484   -12334.415   -9598.6126   -9598.6126 
    4370    249.89453    32.269102   -12332.005   -9714.4163   -9714.4163 
    4380    313.50381    40.483024   -12340.236   -9917.2084   -9917.2084 
    4390    297.99346    38.480159   -12338.228   -9815.8795   -9815.8795 
    4400    255.66689    33.014492    -12332.75   -9624.6653   -9624.6653 
    4410    301.95615    38.991865   -12338.739   -9677.9634   -9677.9634 
    4420    327.59599     42.30276   -12342.055   -9689.5385   -9689.5385 
    4430    286.66447    37.017237   -12336.756   -9574.3863   -9574.3863 
    4440     298.3828    38.530435   -12338.273   -9642.1167   -9642.1167 
    4450    326.05798    42.104156   -12341.857   -9739.7418   -9739.7418 
    4460    277.94666    35.891498   -12335.632   -9613.6724   -9613.6724 
    4470    271.69409    35.084098   -12334.821     -9585.32     -9585.32 
    4480    334.67887    43.217378    -12342.97   -9718.3377   -9718.3377 
    4490    323.26778    41.743855   -12341.492   -9661.9928   -9661.9928 
    4500    275.74735    35.607499   -12335.345   -9568.7543   -9568.7543 
    4510    293.53829    37.904859   -12337.652   -9691.4618   -9691.4618 
    4520     295.6392    38.176151   -12337.924   -9739.5133   -9739.5133 
    4530    275.55389    35.582518    -12335.32    -9662.079    -9662.079 
    4540    316.18294    40.828983   -12340.576   -9721.0976   -9721.0976 
    4550    332.29942    42.910119   -12342.662   -9737.4429   -9737.4429 
    4560    278.08082    35.908823   -12335.647   -9570.4524   -9570.4524 
    4570    284.00671    36.674038   -12336.414   -9539.6359   -9539.6359 
    4580    333.86243    43.111951   -12342.865   -9637.9325   -9637.9325 
    4590    308.76995    39.871737   -12339.616   -9596.6467   -9596.6467 
    4600    285.96512    36.926929   -12336.666   -9629.9702   -9629.9702 
    4610    312.12033    40.304375   -12340.055   -9827.3393   -9827.3393 
    4620    286.01522    36.933398   -12336.679    -9838.314    -9838.314 
    4630    253.48372    32.732577   -12332.469   -9707.8392   -9707.8392 
    4640    299.02338    38.613153    -12338.36    -9689.896    -9689.896 
    4650    323.57861    41.783992   -12341.534   -9607.2809   -9607.2809 
    4660    300.20028    38.765128   -12338.505   -9437.8429   -9437.8429 
    4670    317.81694    41.039983   -12340.784   -9465.6059   -9465.6059 
    4680    339.59525    43.852235   -12343.603   -9629.5088   -9629.5088 
    4690    298.97303    38.606652   -12338.351   -9700.2463   -9700.2463 
    4700    261.10686     33.71696   -12333.457   -9756.0062   -9756.0062 
    4710    272.19812    35.149184   -12334.894   -9848.3614   -9848.3614 
    4720    289.19741    37.344317    -12337.09   -9823.0055   -9823.0055 
    4730    297.89535     38.46749   -12338.212    -9687.565    -9687.565 
    4740    306.10475    39.527578   -12339.272   -9569.9787   -9569.9787 
    4750    317.91844    41.053089   -12340.797   -9505.6907   -9505.6907 
    4760    330.77578    42.713369   -12342.461   -9477.4177   -9477.4177 
    4770    318.05979    41.071342   -12340.817   -9493.5463   -9493.5463 
    4780    296.69173    38.312066   -12338.054   -9614.7427   -9614.7427 
    4790    297.00871    38.352997   -12338.099   -9789.2161   -9789.2161 
    4800     284.9852    36.800391   -12336.547   -9839.3329   -9839.3329 
    4810    259.03963    33.450016    -12333.19   -9769.3521   -9769.3521 
    4820    281.16013    36.306456   -12336.049   -9751.1141   -9751.1141 
    4830    321.43106    41.506677   -12341.257   -9754.0792   -9754.0792 
    4840    304.66705    39.341926   -12339.087   -9635.0093   -9635.0093 
    4850    286.53075     36.99997    -12336.74   -9522.1093   -9522.1093 
    4860    313.72939    40.512154   -12340.259   -9557.1939   -9557.1939 
    4870    323.23757    41.739953   -12341.488   -9645.0961   -9645.0961 
    4880    297.80806    38.456218     -12338.2   -9693.7675   -9693.7675 
    4890    283.75251    36.641212   -12336.384   -9699.5573   -9699.5573 
    4900    291.18425     37.60088   -12337.345   -9676.6756   -9676.6756 
    4910    305.16442    39.406151   -12339.151   -9660.1602   -9660.1602 
    4920    312.26713    40.323331    -12340.07   -9649.8995   -9649.8995 
    4930      295.799    38.196787   -12337.941    -9597.043    -9597.043 
    4940    289.21282    37.346308   -12337.088   -9582.1908   -9582.1908 
    4950    310.62996    40.111922   -12339.859   -9647.3629   -9647.3629 
    4960    314.12446     40.56317    -12340.31   -9680.2938   -9680.2938 
    4970     298.3742    38.529325   -12338.273   -9687.0921   -9687.0921 
    4980    293.44766    37.893156   -12337.638   -9721.9667   -9721.9667 
    4990    286.10226    36.944638   -12336.689   -9709.3384   -9709.3384 
    5000    282.24757    36.446879   -12336.188   -9647.7934   -9647.7934 
    5010    306.61491    39.593455    -12339.34   -9624.6912   -9624.6912 
    5020    317.46124    40.994051   -12340.741   -9589.4551   -9589.4551 
    5030    306.38372    39.563601   -12339.306   -9569.6524   -9569.6524 
    5040    313.66384    40.503689   -12340.249   -9650.3794   -9650.3794 
    5050    310.59066    40.106847   -12339.855   -9708.6858   -9708.6858 
    5060    278.74379    35.994432   -12335.736   -9681.9346   -9681.9346 
    5070    275.82296    35.617263   -12335.359   -9722.7506   -9722.7506 
    5080    297.85283    38.461999    -12338.21   -9796.8492   -9796.8492 
    5090     288.2749    37.225193   -12336.969   -9719.4738   -9719.4738 
    5100    285.80301    36.905996   -12336.646   -9604.5919   -9604.5919 
    5110    322.88571    41.694518   -12341.442   -9611.2696   -9611.2696 
    5120    333.27793    43.036474   -12342.785    -9626.588    -9626.588 
    5130    304.24026    39.286814    -12339.03   -9618.9327   -9618.9327 
    5140    283.89972    36.660222   -12336.404   -9652.3939   -9652.3939 
    5150    277.97596    35.895281   -12335.639   -9657.1952   -9657.1952 
    5160    289.95649    37.442339   -12337.185    -9637.537    -9637.537 
    5170    320.92001    41.440684   -12341.188    -9672.703    -9672.703 
    5180    322.04968     41.58656   -12341.334   -9671.4164   -9671.4164 
    5190    291.12324    37.593001   -12337.334   -9608.1376   -9608.1376 
    5200    290.70609    37.539134   -12337.282   -9641.2121   -9641.2121 
    5210    307.87911    39.756702   -12339.505   -9735.8699   -9735.8699 
    5220    288.95684    37.313252   -12337.057   -9724.6616   -9724.6616 
    5230    275.87387    35.623837   -12335.364   -9699.2008   -9699.2008 
    5240     301.2965    38.906684   -12338.653   -9741.7458   -9741.7458 
    5250    308.76931    39.871654   -12339.619   -9709.9885   -9709.9885 
    5260    291.30762    37.616811   -12337.359   -9619.1031   -9619.1031 
    5270    298.81206    38.585866   -12338.329   -9617.7535   -9617.7535 
    5280    321.10363    41.464396   -12341.212   -9645.9417   -9645.9417 
    5290    315.26465    40.710403   -12340.456   -9598.7951   -9598.7951 
    5300    295.49671    38.157752     -12337.9   -9570.4228   -9570.4228 
    5310     295.8287    38.200622   -12337.944    -9626.036    -9626.036 
    5320    306.19461    39.539181   -12339.285   -9664.0827   -9664.0827 
    5330    308.92665    39.891972   -12339.637   -9666.4592   -9666.4592 
    5340      301.488    38.931412   -12338.676   -9690.9986   -9690.9986 
    5350    292.36064    37.752789   -12337.497   -9720.7421   -9720.7421 
    5360    289.74058    37.414458   -12337.159   -9732.9299   -9732.9299 
    5370    289.65512    37.403422   -12337.148    -9732.029    -9732.029 
    5380    288.82143    37.295767    -12337.04   -9698.8369   -9698.8369 
    5390    291.30419    37.616368    -12337.36   -9644.9254   -9644.9254 
    5400     302.3524    39.043033   -12338.788   -9648.9411   -9648.9411 
    5410    307.80188    39.746729   -12339.492   -9665.8542   -9665.8542 
    5420    301.79939    38.971622   -12338.716   -9619.3672   -9619.3672 
    5430    302.23033     39.02727    -12338.77    -9598.599    -9598.599 
    5440    314.71575    40.639524   -12340.387   -9680.2504   -9680.2504 
    5450    302.95681    39.121081   -12338.867   -9704.8336   -9704.8336 
    5460     278.2367    35.928952   -12335.669   -9645.1674   -9645.1674 
    5470     293.8267    37.942102   -12337.686   -9679.9695   -9679.9695 
    5480    317.29757    40.972917   -12340.722   -9733.9032   -9733.9032 
    5490    293.58984    37.911516   -12337.656   -9647.2573   -9647.2573 
    5500    274.86028    35.492952   -12335.232   -9591.0089   -9591.0089 
    5510    305.91991    39.503709   -12339.251   -9688.3748   -9688.3748 
    5520    314.69852    40.637299   -12340.385   -9695.5742   -9695.5742 
    5530    294.66642    38.050536   -12337.791   -9610.5888   -9610.5888 
    5540    310.82631    40.137276   -12339.883   -9653.7742   -9653.7742 
    5550    318.48476     41.12622   -12340.876   -9689.4361   -9689.4361 
    5560    282.86793    36.526986   -12336.267   -9590.5229   -9590.5229 
    5570    292.65027    37.790188   -12337.532   -9612.3043   -9612.3043 
    5580    329.29213    42.521785   -12342.273   -9718.2853   -9718.2853 
    5590    300.37259    38.787378   -12338.532   -9651.0396   -9651.0396 
    5600    273.46943    35.313349   -12335.051   -9597.2132   -9597.2132 
    5610    307.68851    39.732089    -12339.48   -9702.6186   -9702.6186 
    5620    312.65087    40.372883   -12340.121   -9698.6098   -9698.6098 
    5630     289.5171    37.385599   -12337.125   -9615.5318   -9615.5318 
    5640    310.18766    40.054807   -12339.803   -9711.5484   -9711.5484 
    5650    299.96328    38.734524   -12338.484     -9774.85     -9774.85 
    5660    249.06456    32.161927   -12331.899   -9697.2251   -9697.2251 
    5670    274.30162    35.420812   -12335.163   -9751.7194   -9751.7194 
    5680    321.86069    41.562156   -12341.315   -9815.7436   -9815.7436 
    5690    294.79741     38.06745   -12337.808   -9641.1142   -9641.1142 
    5700    299.84144    38.718791   -12338.457   -9545.3356   -9545.3356 
    5710    356.12546    45.986796   -12345.741    -9634.949    -9634.949 
    5720     323.1262    41.725572   -12341.473   -9533.3323   -9533.3323 
    5730    265.27818    34.255606    -12333.99   -9400.6649   -9400.6649 
    5740    303.56021    39.198998   -12338.946   -9592.7746   -9592.7746 
    5750    322.01964    41.582681   -12341.335   -9782.7134   -9782.7134 
    5760    268.83159    34.714462   -12334.453   -9753.5222   -9753.5222 
    5770    273.04001    35.257899   -12334.999   -9825.6357   -9825.6357 
    5780    306.83645    39.622063   -12339.374   -9915.0242   -9915.0242 
    5790     276.9268    35.759803   -12335.501   -9721.6989   -9721.6989 
    5800    276.31215    35.680432   -12335.418   -9520.6747   -9520.6747 
    5810     340.5421    43.974503   -12343.725   -9535.1067   -9535.1067 
    5820    346.16794    44.700972    -12344.45   -9517.4058   -9517.4058 
    5830    302.33408    39.040667    -12338.78   -9486.5134   -9486.5134 
    5840    303.65609     39.21138   -12338.956   -9657.2551   -9657.2551 
    5850    301.89869    38.984445   -12338.733   -9814.6564   -9814.6564 
    5860    265.84992    34.329436    -12334.07   -9774.6776   -9774.6776 
    5870    272.18058    35.146919   -12334.888   -9741.8666   -9741.8666 
    5880    311.01513    40.161659    -12339.91   -9738.5049   -9738.5049 
    5890    313.15019    40.437361   -12340.183   -9604.7862   -9604.7862 
    5900    305.70446    39.475888   -12339.218     -9508.72     -9508.72 
    5910    317.46205    40.994155   -12340.741   -9612.4084   -9612.4084 
    5920    306.19395    39.539095   -12339.286   -9725.1087   -9725.1087 
    5930    275.13779    35.528786    -12335.27   -9735.4569   -9735.4569 
    5940    272.25687    35.156771     -12334.9   -9745.5016   -9745.5016 
    5950    287.87823    37.173971   -12336.919   -9723.2117   -9723.2117 
    5960     304.1493    39.275068   -12339.019   -9636.4078   -9636.4078 
    5970    327.26699    42.260276   -12342.007   -9601.4584   -9601.4584 
    5980    326.26355    42.130701   -12341.878   -9599.8054   -9599.8054 
    5990    294.89296    38.079789   -12337.822   -9566.1567   -9566.1567 
    6000    289.00999    37.320116   -12337.062   -9617.0436   -9617.0436 
    6010    310.48761    40.093539   -12339.842   -9770.1255   -9770.1255 
    6020    290.00493    37.448593   -12337.195   -9796.1435   -9796.1435 
    6030    253.17346    32.692513    -12332.43    -9703.509    -9703.509 
    6040    281.97746    36.411998   -12336.155   -9714.4161   -9714.4161 
    6050    325.48529    42.030203   -12341.781   -9730.6445   -9730.6445 
    6060    311.55115    40.230875   -12339.975   -9606.3404   -9606.3404 
    6070      303.483    39.189029    -12338.93   -9559.0705   -9559.0705 
    6080    322.98389    41.707196   -12341.456   -9631.7326   -9631.7326 
    6090    302.43412    39.053585   -12338.799   -9599.6415   -9599.6415 
    6100    277.36495    35.816381   -12335.555   -9564.5264   -9564.5264 
    6110    311.78096    40.260552   -12340.007   -9701.6061   -9701.6061 
    6120    329.70933    42.575657   -12342.327   -9775.1843   -9775.1843 
    6130    283.74304    36.639989   -12336.381   -9650.8051   -9650.8051 
    6140    273.53807    35.322214   -12335.062    -9607.158    -9607.158 
    6150    310.30436    40.069877   -12339.818   -9668.2947   -9668.2947 
    6160    310.80541    40.134577   -12339.881   -9643.1352   -9643.1352 
    6170    290.62623    37.528822   -12337.271   -9615.4824   -9615.4824 
    6180    295.81128    38.198373   -12337.943   -9686.9513   -9686.9513 
    6190    299.67502    38.697301   -12338.443    -9747.161    -9747.161 
    6200    294.90639    38.081523   -12337.825    -9767.958    -9767.958 
    6210    298.51863    38.547974   -12338.294   -9777.1752   -9777.1752 
    6220    293.36627    37.882646   -12337.627   -9702.4705   -9702.4705 
    6230    292.39402    37.757098     -12337.5   -9603.8171   -9603.8171 
    6240    309.54422    39.971719   -12339.718   -9573.9635   -9573.9635 
    6250    310.86161    40.141835   -12339.887   -9548.0002   -9548.0002 
    6260    305.00954    39.386152   -12339.128   -9571.1854   -9571.1854 
    6270    318.06176    41.071596   -12340.819   -9732.1432   -9732.1432 
    6280    299.21064    38.637334   -12338.385   -9835.3199   -9835.3199 
    6290    250.98797    32.410299   -12332.149   -9769.2259   -9769.2259 
    6300    265.28842    34.256929   -12333.998   -9731.7313   -9731.7313 
    6310    316.70843     40.89684   -12340.647   -9730.0222   -9730.0222 
    6320    316.64658    40.888852   -12340.634    -9603.788    -9603.788 
    6330    309.50931    39.967211   -12339.709   -9494.5326   -9494.5326 
    6340     328.4509    42.413155   -12342.161    -9530.844    -9530.844 
    6350    314.37959    40.596115   -12340.342   -9584.9616   -9584.9616 
    6360      291.101    37.590129   -12337.331    -9660.737    -9660.737 
    6370     299.7873    38.711799   -12338.459   -9777.6527   -9777.6527 
    6380    288.76024    37.287865   -12337.034   -9762.1257   -9762.1257 
    6390    271.53228    35.063203   -12334.803   -9662.3167   -9662.3167 
    6400    302.95407    39.120727   -12338.867    -9679.515    -9679.515 
    6410    320.53118    41.390475    -12341.14   -9707.2069   -9707.2069 
    6420    290.35914    37.494333   -12337.236   -9649.2728   -9649.2728 
    6430    287.47986    37.122529   -12336.864   -9656.6747   -9656.6747 
    6440    311.09969    40.172578   -12339.921   -9711.4711   -9711.4711 
    6450     304.3473    39.300636   -12339.045   -9675.5212   -9675.5212 
    6460    295.87263    38.206295   -12337.949   -9638.2648   -9638.2648 
    6470    303.28211    39.163088    -12338.91   -9671.1168   -9671.1168 
    6480    294.92004    38.083286   -12337.828   -9685.8389   -9685.8389 
    6490     289.0192    37.321306   -12337.064   -9691.0154   -9691.0154 
    6500    298.46997    38.541691   -12338.288   -9706.0688   -9706.0688 
    6510    297.14269    38.370298   -12338.114     -9657.59     -9657.59 
    6520    303.25862    39.160054   -12338.903   -9583.6152   -9583.6152 
    6530    327.63063    42.307233   -12342.055   -9554.8911   -9554.8911 
    6540    323.00453    41.709861   -12341.457   -9543.4249   -9543.4249 
    6550     294.3905    38.014906   -12337.756   -9590.6117   -9590.6117 
    6560    294.92855    38.084385   -12337.829   -9764.1341   -9764.1341 
    6570    291.38752    37.627128   -12337.375   -9888.4724   -9888.4724 
    6580    261.03363    33.707504   -12333.449    -9838.161    -9838.161 
    6590    266.06086    34.356675   -12334.097   -9755.1194   -9755.1194 
    6600    309.99848    40.030378   -12339.778   -9708.7374   -9708.7374 
    6610    322.16434    41.601367    -12341.35   -9618.3315   -9618.3315 
    6620    295.92242    38.212725   -12337.954   -9508.5728   -9508.5728 
    6630    302.40791    39.050201   -12338.792   -9529.9703   -9529.9703 
    6640    332.33371    42.914546   -12342.663   -9635.2284   -9635.2284 
    6650    320.71732    41.414511   -12341.162   -9674.0388   -9674.0388 
    6660     280.0047    36.157255   -12335.898   -9643.1054   -9643.1054 
    6670     279.2109     36.05475   -12335.796   -9643.4861   -9643.4861 
    6680    314.58243    40.622308   -12340.371   -9694.1132   -9694.1132 
    6690    312.96007     40.41281    -12340.16   -9705.4165   -9705.4165 
    6700    279.14602    36.046373   -12335.787   -9685.3378   -9685.3378 
    6710     278.5978    35.975581   -12335.718   -9724.8129   -9724.8129 
    6720    302.32268    39.039196   -12338.787   -9776.1415   -9776.1415 
    6730    300.11779    38.754475   -12338.499   -9713.2994   -9713.2994 
    6740    296.70267    38.313478   -12338.055   -9617.0656   -9617.0656 
    6750    318.04684     41.06967   -12340.816   -9619.4646   -9619.4646 
    6760    320.65055    41.405889   -12341.153   -9635.2463   -9635.2463 
    6770    295.17912    38.116741   -12337.859   -9588.5498   -9588.5498 
    6780     290.8571    37.558634   -12337.301   -9595.8649   -9595.8649 
    6790    303.82876    39.233677    -12338.98   -9676.7736   -9676.7736 
    6800    299.08153    38.620662   -12338.365   -9709.9208   -9709.9208 
    6810    290.90154    37.564373   -12337.307   -9689.3572   -9689.3572 
    6820    295.98197    38.220414   -12337.966   -9685.1567   -9685.1567 
    6830    297.40603    38.404304   -12338.149    -9680.198    -9680.198 
    6840    298.17847    38.504049   -12338.248   -9672.4725   -9672.4725 
    6850    307.02467    39.646368   -12339.392   -9700.9979   -9700.9979 
    6860    303.16649    39.148157   -12338.894   -9724.3718   -9724.3718 
    6870     284.5684     36.74657    -12336.49   -9694.9524   -9694.9524 
    6880    279.76264    36.125997   -12335.868   -9660.4152   -9660.4152 
    6890    297.40645    38.404358    -12338.15   -9667.5111   -9667.5111 
    6900    308.14779    39.791396   -12339.537    -9640.741    -9640.741 
    6910    306.95252    39.637051   -12339.381   -9576.5445   -9576.5445 
    6920    314.50424    40.612211   -12340.356   -9571.0197   -9571.0197 
    6930    326.04099    42.101961   -12341.849   -9615.2594   -9615.2594 
    6940    315.68959    40.765276   -12340.511   -9630.0896   -9630.0896 
    6950     291.7237    37.670539   -12337.413   -9653.9038   -9653.9038 
    6960    282.80123    36.518373   -12336.263   -9734.6881   -9734.6881 
    6970      279.708    36.118942   -12335.864   -9770.9614   -9770.9614 
    6980    275.79446    35.613582   -12335.356   -9739.4233   -9739.4233 
    6990    290.09488    37.460209   -12337.204   -9734.4283   -9734.4283 
    7000    314.25355    40.579839   -12340.327   -9735.3424   -9735.3424 
    7010    311.45345    40.218259   -12339.964   -9645.7824   -9645.7824 
    7020    301.17275    38.890704   -12338.633    -9561.981    -9561.981 
    7030    312.89096    40.403887    -12340.15   -9581.3515   -9581.3515 
    7040    309.42609    39.956465   -12339.703   -9588.3946   -9588.3946 
    7050    287.14485    37.079269   -12336.821   -9580.6174   -9580.6174 
    7060    295.84107    38.202219   -12337.946   -9682.2508   -9682.2508 
    7070    308.21533    39.800119   -12339.549   -9768.7976   -9768.7976 
    7080    286.00877    36.932566   -12336.675   -9702.1928   -9702.1928 
    7090    288.66883    37.276061   -12337.017   -9649.6001   -9649.6001 
    7100     328.7324    42.449505   -12342.198   -9680.3467   -9680.3467 
    7110    327.10117    42.238864   -12341.987   -9639.7236   -9639.7236 
    7120    289.56194     37.39139   -12337.132   -9577.7321   -9577.7321 
    7130    286.24314     36.96283   -12336.707   -9650.1349   -9650.1349 
    7140    289.03357    37.323161    -12337.07   -9721.2137   -9721.2137 
    7150     277.4993    35.833731   -12335.575   -9715.4474   -9715.4474 
    7160    293.05229    37.842102   -12337.586   -9749.3691   -9749.3691 
    7170    309.93083    40.021642    -12339.77   -9761.6135   -9761.6135 
    7180    291.75635    37.674756   -12337.418   -9667.8254   -9667.8254 
    7190    286.94877    37.053949   -12336.795   -9603.3529   -9603.3529 
    7200    317.23786    40.965206   -12340.712   -9629.1539   -9629.1539 
    7210     327.2897    42.263208    -12342.01   -9615.8385   -9615.8385 
    7220    311.02581    40.163038   -12339.907   -9582.8242   -9582.8242 
    7230    294.72683    38.058336   -12337.803   -9613.5769   -9613.5769 
    7240    285.00221    36.802588   -12336.546   -9681.9904   -9681.9904 
    7250    290.03771    37.452826   -12337.197   -9752.5037   -9752.5037 
    7260    295.18793    38.117879   -12337.865   -9793.5074   -9793.5074 
    7270    279.92766    36.147307    -12335.89   -9754.7092   -9754.7092 
    7280    282.59702    36.492003   -12336.233    -9671.119    -9671.119 
    7290    321.26973    41.485845   -12341.233   -9594.7817   -9594.7817 
    7300    334.00876    43.130847   -12342.878   -9496.4317   -9496.4317 
    7310    319.08062    41.203163   -12340.946   -9467.5686   -9467.5686 
    7320    315.36437     40.72328   -12340.469   -9584.7425   -9584.7425 
    7330    300.96726    38.864168    -12338.61   -9719.9091   -9719.9091 
    7340     275.9937     35.63931   -12335.381   -9786.6936   -9786.6936 
    7350    277.21975    35.797631   -12335.542   -9813.3614   -9813.3614 
    7360    286.87877    37.044909   -12336.791   -9773.4827   -9773.4827 
    7370     288.3521    37.235162   -12336.977   -9677.8848   -9677.8848 
    7380    309.43931    39.958172   -12339.703    -9612.611    -9612.611 
    7390    325.08258    41.978201   -12341.726   -9570.4865   -9570.4865 
    7400    306.98762    39.641584   -12339.385   -9574.2297   -9574.2297 
    7410    295.70865     38.18512   -12337.929   -9687.3691   -9687.3691 
    7420    290.64676    37.531473   -12337.278   -9767.2814   -9767.2814 
    7430    272.79601     35.22639   -12334.967   -9712.4332   -9712.4332 
    7440    291.27744    37.612914   -12337.355    -9695.403    -9695.403 
    7450     328.5369    42.424261   -12342.175   -9734.8901   -9734.8901 
    7460    306.23008    39.543761   -12339.289   -9670.6129   -9670.6129 
    7470    278.34417    35.942829   -12335.682   -9620.5359   -9620.5359 
    7480    304.75293    39.353015     -12339.1   -9674.6651   -9674.6651 
    7490    310.12759     40.04705   -12339.795   -9637.8952   -9637.8952 
    7500    287.45753    37.119645    -12336.86   -9562.8672   -9562.8672 
    7510    306.36758    39.561517   -12339.306    -9637.636    -9637.636 
    7520    324.07933    41.848651   -12341.598   -9703.5478   -9703.5478 
    7530    293.20854    37.862278   -12337.604   -9643.6314   -9643.6314 
    7540    283.63032    36.625435   -12336.367   -9666.1853   -9666.1853 
    7550    299.71194    38.702069    -12338.45   -9751.4206   -9751.4206 
    7560    285.26752    36.836848    -12336.58   -9711.5822   -9711.5822 
    7570     282.0999    36.427809   -12336.168   -9649.5494   -9649.5494 
    7580    317.94035    41.055919   -12340.802   -9642.6277   -9642.6277 
    7590    336.14067    43.406143   -12343.154   -9593.4366   -9593.4366 
    7600    316.85606    40.915904    -12340.66   -9548.1451   -9548.1451 
    7610    298.26008    38.514588   -12338.259   -9618.3337   -9618.3337 
    7620     287.8344    37.168311   -12336.912   -9694.2902   -9694.2902 
    7630      288.224     37.21862   -12336.963   -9720.3425   -9720.3425 
    7640      292.503    37.771172   -12337.518   -9753.6293   -9753.6293 
    7650    278.44295    35.955584   -12335.699    -9757.094    -9757.094 
    7660    275.00126    35.511156   -12335.252   -9731.4531   -9731.4531 
    7670    306.30017    39.552812   -12339.298   -9715.4398   -9715.4398 
    7680    328.91971    42.473693   -12342.222   -9655.8715   -9655.8715 
    7690    315.90021    40.792474   -12340.536   -9544.4393   -9544.4393 
    7700    305.31835    39.426029    -12339.17   -9528.3749   -9528.3749 
    7710    302.66316    39.083162   -12338.829   -9608.4794   -9608.4794 
    7720    290.23179    37.477888   -12337.221   -9639.9344   -9639.9344 
    7730    293.73467    37.930217   -12337.673   -9654.0526   -9654.0526 
    7740     311.8166    40.265153   -12340.012   -9730.2049   -9730.2049 
    7750    304.31467    39.296422   -12339.043   -9792.9439   -9792.9439 
    7760    272.69474    35.213313   -12334.956   -9758.2964   -9758.2964 
    7770    266.90993    34.466315   -12334.207   -9700.7548   -9700.7548 
    7780    302.98294    39.124455   -12338.871   -9706.2624   -9706.2624 
    7790    317.65373    41.018907   -12340.767   -9682.3195   -9682.3195 
    7800    293.81636    37.940767   -12337.683   -9608.7263   -9608.7263 
    7810    293.16666    37.856871   -12337.599   -9604.4602   -9604.4602 
    7820    316.95685    40.928919   -12340.676   -9635.2918   -9635.2918 
    7830    314.47716    40.608714   -12340.354   -9597.3142   -9597.3142 
    7840    303.27986    39.162797   -12338.905   -9579.5954   -9579.5954 
    7850    311.96775    40.284672   -12340.031   -9644.2962   -9644.2962 
    7860    300.75057    38.836188   -12338.582   -9649.2059   -9649.2059 
    7870    284.14737    36.692201   -12336.432    -9614.501    -9614.501 
    7880    312.18408    40.312606   -12340.059   -9681.5184   -9681.5184 
    7890     320.9764    41.447967   -12341.199     -9724.56     -9724.56 
    7900    272.99427    35.251991   -12334.992    -9660.622    -9660.622 
    7910    266.55377    34.420324    -12334.16   -9679.8241   -9679.8241 
    7920    309.48292    39.963804   -12339.714    -9743.839    -9743.839 
    7930    305.22278    39.413688    -12339.16   -9648.8424   -9648.8424 
    7940    288.17189    37.211891   -12336.951   -9560.7706   -9560.7706 
    7950    318.81977    41.169479   -12340.917   -9654.3786   -9654.3786 
    7960    324.59535    41.915285   -12341.664   -9725.5952   -9725.5952 
    7970    287.85206    37.170591   -12336.912   -9696.9605   -9696.9605 
    7980    281.00732    36.286723    -12336.03   -9716.1162   -9716.1162 
    7990    289.86281    37.430241   -12337.176   -9726.4247   -9726.4247 
    8000     288.9627    37.314009   -12337.056   -9657.8506   -9657.8506 
    8010    306.27644    39.549748   -12339.295   -9604.1186   -9604.1186 
    8020    317.95938    41.058376   -12340.805   -9574.6588   -9574.6588 
    8030    308.20597    39.798909   -12339.542   -9588.4135   -9588.4135 
    8040      310.777    40.130909   -12339.877   -9713.7893   -9713.7893 
    8050    298.18236    38.504552   -12338.253   -9808.6612   -9808.6612 
    8060     256.1836    33.081215   -12332.821   -9755.6146   -9755.6146 
    8070    265.99086    34.347635   -12334.088   -9708.5599   -9708.5599 
    8080     321.6121    41.530055    -12341.28   -9691.5449   -9691.5449 
    8090    327.76059    42.324014   -12342.071   -9578.6442   -9578.6442 
    8100    310.40489    40.082858   -12339.824   -9494.7186   -9494.7186 
    8110    320.11596    41.336857   -12341.084   -9556.7889   -9556.7889 
    8120    309.76201    39.999842   -12339.746   -9634.2384   -9634.2384 
    8130    280.50084    36.221322   -12335.963   -9681.9078   -9681.9078 
    8140    282.01528    36.416883   -12336.161   -9745.2395   -9745.2395 
    8150    294.63039    38.045883   -12337.791   -9758.6557   -9758.6557 
    8160    300.21882    38.767522   -12338.511   -9713.6961   -9713.6961 
    8170     310.5381    40.100059   -12339.847    -9664.085    -9664.085 
    8180    302.72651    39.091342   -12338.836   -9588.8729   -9588.8729 
    8190    294.78282    38.065567   -12337.807   -9582.5425   -9582.5425 
    8200    312.91318    40.406756   -12340.154   -9692.3221   -9692.3221 
    8210    301.53474    38.937448   -12338.684   -9716.4129   -9716.4129 
    8220    270.11762    34.880527   -12334.619   -9668.2057   -9668.2057 
    8230    292.67788    37.793753   -12337.538   -9747.4073   -9747.4073 
    8240    315.84783     40.78571   -12340.536   -9798.8986   -9798.8986 
    8250    286.83056    37.038684   -12336.779   -9669.9082   -9669.9082 
    8260     292.1545    37.726169   -12337.468   -9607.7254   -9607.7254 
    8270     324.7548    41.935875   -12341.687   -9642.4666   -9642.4666 
    8280    299.03603    38.614787   -12338.359   -9566.5244   -9566.5244 
    8290    281.57471    36.359991   -12336.098   -9525.5611   -9525.5611 
    8300    322.08113    41.590622   -12341.339   -9640.7317   -9640.7317 
    8310    324.57771    41.913007   -12341.661   -9681.9368   -9681.9368 
    8320    290.47032     37.50869   -12337.249   -9653.6772   -9653.6772 
    8330    296.53556    38.291899   -12338.037    -9734.496    -9734.496 
    8340    296.48719    38.285653   -12338.033    -9774.914    -9774.914 
    8350    271.24966    35.026709   -12334.767   -9706.4453   -9706.4453 
    8360    285.02094    36.805007   -12336.549   -9714.1244   -9714.1244 
    8370    304.61097    39.334684   -12339.083   -9737.6182   -9737.6182 
    8380    289.30932    37.358769     -12337.1   -9656.0983   -9656.0983 
    8390    299.56371    38.682926   -12338.426    -9623.196    -9623.196 
    8400    326.25873    42.130079   -12341.878   -9639.5346   -9639.5346 
    8410    317.87716    41.047758   -12340.792   -9577.4533   -9577.4533 
    8420    307.65992    39.728397   -12339.471   -9546.4285   -9546.4285 
    8430    310.07868    40.040734   -12339.788   -9626.8662   -9626.8662 
    8440    288.90604    37.306692   -12337.051   -9681.6123   -9681.6123 
    8450    275.20554    35.537535   -12335.279   -9700.2711   -9700.2711 
    8460    292.41642    37.759991   -12337.506    -9738.095    -9738.095 
    8470    297.98579    38.479169   -12338.224   -9718.7925   -9718.7925 
    8480    300.22481    38.768295   -12338.511   -9662.9878   -9662.9878 
    8490    318.78764     41.16533   -12340.912   -9649.5041   -9649.5041 
    8500    314.16393    40.568266   -12340.315   -9616.3068   -9616.3068 
    8510     289.8039    37.422634   -12337.164   -9557.6846   -9557.6846 
    8520    292.45211    37.764599   -12337.508   -9596.6853   -9596.6853 
    8530    306.47731    39.575687   -12339.323   -9715.7405   -9715.7405 
    8540    296.52799    38.290921   -12338.036   -9767.3872   -9767.3872 
    8550    281.85092    36.395659   -12336.138   -9735.7544   -9735.7544 
    8560    289.14523     37.33758   -12337.081   -9716.4688   -9716.4688 
    8570    305.31125    39.425112   -12339.171   -9700.1925   -9700.1925 
    8580    308.90237    39.888837   -12339.635   -9622.5724   -9622.5724 
    8590    300.01154    38.740755   -12338.484   -9536.6475   -9536.6475 
    8600      307.168    39.664875   -12339.409   -9569.5424   -9569.5424 
    8610    320.76151    41.420218   -12341.168    -9657.222    -9657.222 
    8620    302.33691    39.041032   -12338.786   -9669.4982   -9669.4982 
    8630    279.21665    36.055493   -12335.797   -9691.7685   -9691.7685 
    8640    285.52896    36.870607   -12336.616   -9769.8186   -9769.8186 
    8650    287.04767    37.066719   -12336.812   -9747.2589   -9747.2589 
    8660    283.64605    36.627466   -12336.369   -9648.5296   -9648.5296 
    8670    310.80184    40.134116    -12339.88   -9637.8225   -9637.8225 
    8680    329.49788    42.548353   -12342.297   -9645.7508   -9645.7508 
    8690    308.90299    39.888916   -12339.633   -9600.3734   -9600.3734 
    8700     291.5947    37.653881   -12337.396   -9597.7375   -9597.7375 
    8710    295.11009    38.107827   -12337.853   -9631.0862   -9631.0862 
    8720    300.25426    38.772099   -12338.516   -9633.2651   -9633.2651 
    8730    311.20985    40.186803   -12339.932    -9669.486    -9669.486 
    8740    309.66382    39.987164   -12339.735   -9717.7301   -9717.7301 
    8750    282.20189     36.44098   -12336.183    -9695.147    -9695.147 
    8760    281.09106    36.297537   -12336.039   -9691.1901   -9691.1901 
    8770    309.99327    40.029706   -12339.778   -9731.8708   -9731.8708 
    8780     305.4107    39.437953   -12339.184   -9688.7193   -9688.7193 
    8790    284.87985    36.786788   -12336.528    -9620.031    -9620.031 
    8800    296.25849     38.25612   -12338.001    -9639.237    -9639.237 
    8810     308.4987     39.83671   -12339.583   -9646.6527   -9646.6527 
    8820    302.38632    39.047413   -12338.791   -9605.2601   -9605.2601 
    8830    307.64329     39.72625   -12339.471    -9643.801    -9643.801 
    8840    311.18911    40.184125   -12339.931   -9720.1649   -9720.1649 
    8850    295.61667    38.173242   -12337.917   -9709.4007   -9709.4007 
    8860     286.3247    36.973362   -12336.717   -9650.8979   -9650.8979 
    8870    290.77182    37.547623   -12337.292   -9609.2542   -9609.2542 
    8880     301.6218     38.94869   -12338.693   -9600.8129   -9600.8129 
    8890    312.37636    40.337436   -12340.084   -9629.6142   -9629.6142 
    8900    304.62947    39.337073   -12339.082   -9654.0926   -9654.0926 
    8910    293.27744    37.871175   -12337.613   -9655.0871   -9655.0871 
    8920    307.21604    39.671079   -12339.417   -9681.4431   -9681.4431 
    8930     310.8496    40.140284   -12339.888   -9713.6622   -9713.6622 
    8940    281.01544    36.287772   -12336.031   -9708.1426   -9708.1426 
    8950    269.85102    34.846101   -12334.587   -9704.4829   -9704.4829 
    8960    296.05238    38.229506   -12337.976   -9714.8806   -9714.8806 
    8970    310.54385    40.100802   -12339.847   -9676.2188   -9676.2188 
    8980    311.76139    40.258024   -12340.002   -9634.3304   -9634.3304 
    8990    314.00392    40.547604   -12340.295   -9640.7369   -9640.7369 
    9000    294.55619    38.036302   -12337.781   -9620.8266   -9620.8266 
    9010    280.31414    36.197212   -12335.938   -9596.6175   -9596.6175 
    9020    304.51359     39.32211   -12339.068    -9643.695    -9643.695 
    9030    314.90791    40.664338   -12340.413   -9680.5768   -9680.5768 
    9040    290.53428    37.516948   -12337.259   -9654.1181   -9654.1181 
    9050     292.8435    37.815141   -12337.558   -9656.7029   -9656.7029 
    9060    315.36733    40.723662   -12340.471   -9666.0167   -9666.0167 
    9070    310.81004    40.135175   -12339.881   -9620.4138   -9620.4138 
    9080    296.30409    38.262009   -12338.004   -9582.8665   -9582.8665 
    9090    305.47762    39.446595   -12339.192   -9619.8594   -9619.8594 
    9100    310.78866    40.132414   -12339.879   -9660.5819   -9660.5819 
    9110    295.31363    38.134111   -12337.878   -9671.2876   -9671.2876 
    9120    284.45894    36.732435   -12336.476   -9697.9767   -9697.9767 
    9130     287.2722    37.095713    -12336.84   -9733.1383   -9733.1383 
    9140    290.25412    37.480772   -12337.226   -9734.0307   -9734.0307 
    9150    290.54643    37.518518   -12337.262   -9693.5266   -9693.5266 
    9160    304.08925    39.267315   -12339.012   -9650.0228   -9650.0228 
    9170    318.62342    41.144124   -12340.891   -9610.0001   -9610.0001 
    9180    314.07883    40.557277   -12340.303   -9599.8019   -9599.8019 
    9190    296.91122    38.340409   -12338.084   -9649.0188   -9649.0188 
    9200    287.07845    37.070695   -12336.815   -9739.0826   -9739.0826 
    9210    285.59197    36.878744   -12336.624   -9798.1669   -9798.1669 
    9220    282.97757    36.541144   -12336.285   -9767.1002   -9767.1002 
    9230    288.21587     37.21757    -12336.96   -9663.2839   -9663.2839 
    9240    312.21945    40.317174   -12340.062    -9564.244    -9564.244 
    9250    334.29566    43.167894   -12342.915   -9507.0819   -9507.0819 
    9260    332.29712    42.909821   -12342.656   -9505.8849   -9505.8849 
    9270    309.71831      39.9942   -12339.739   -9590.8261   -9590.8261 
    9280    281.91041     36.40334   -12336.147    -9737.576    -9737.576 
    9290     263.6115    34.040386   -12333.783   -9852.3061   -9852.3061 
    9300    266.01333    34.350536   -12334.094   -9867.9049   -9867.9049 
    9310    285.56823    36.875678    -12336.62   -9790.8673   -9790.8673 
    9320    306.14511    39.532788   -12339.277   -9652.2566   -9652.2566 
    9330    324.67388    41.925425    -12341.67    -9522.409    -9522.409 
    9340    337.94247     43.63881   -12343.385   -9466.8396   -9466.8396 
    9350    330.67539    42.700406   -12342.447    -9484.903    -9484.903 
    9360    306.18653    39.538138   -12339.282   -9556.1127   -9556.1127 
    9370    290.82356    37.554304   -12337.298     -9679.38     -9679.38 
    9380     281.2858    36.322684   -12336.068   -9788.7222   -9788.7222 
    9390    266.20471    34.375249   -12334.118   -9810.8826   -9810.8826 
    9400     273.8522    35.362776   -12335.105   -9803.1886   -9803.1886 
    9410     303.5837    39.202031   -12338.949   -9795.9724   -9795.9724 
    9420    307.43864    39.699824   -12339.446   -9703.5776   -9703.5776 
    9430    295.52502    38.161407   -12337.903   -9569.7838   -9569.7838 
    9440    312.90939    40.406267   -12340.151   -9555.5039   -9555.5039 
    9450    325.17284    41.989856   -12341.738   -9610.1697   -9610.1697 
    9460    300.05167    38.745937   -12338.489   -9608.5611   -9608.5611 
    9470    290.56477    37.520886   -12337.263   -9635.1517   -9635.1517 
    9480    304.14895    39.275023   -12339.023   -9709.1844   -9709.1844 
    9490    292.60959    37.784935   -12337.529   -9696.5205   -9696.5205 
    9500     285.1866    36.826398   -12336.567   -9650.5183   -9650.5183 
    9510    312.35432    40.334589   -12340.081   -9687.3804   -9687.3804 
    9520    316.80458    40.909256   -12340.658   -9710.2957   -9710.2957 
    9530    280.84889    36.266265   -12336.008   -9658.6302   -9658.6302 
    9540    274.64048    35.464568   -12335.206   -9680.1848   -9680.1848 
    9550    301.59551    38.945295   -12338.693   -9757.9401   -9757.9401 
    9560    304.68028    39.343634   -12339.089   -9712.7089   -9712.7089 
    9570    295.85915    38.204554   -12337.947   -9592.1012   -9592.1012 
    9580    308.65852    39.857347   -12339.602   -9566.1093   -9566.1093 
    9590    320.89467    41.437413   -12341.185   -9621.1309   -9621.1309 
    9600    302.29261    39.035312    -12338.78   -9635.3502   -9635.3502 
    9610    285.44447    36.859697   -12336.601   -9644.8627   -9644.8627 
    9620    298.08743    38.492294   -12338.238   -9700.2499   -9700.2499 
    9630    305.18788    39.409182   -12339.156   -9703.3676   -9703.3676 
    9640    293.69907     37.92562   -12337.668   -9630.6749   -9630.6749 
    9650    302.99832    39.126441   -12338.869   -9594.4214   -9594.4214 
    9660    328.84149    42.463593   -12342.212   -9601.7667   -9601.7667 
    9670    316.04996     40.81181   -12340.559   -9575.4188   -9575.4188 
    9680    281.64859    36.369532   -12336.111   -9592.7031   -9592.7031 
    9690    281.46985    36.346451    -12336.09   -9710.5792   -9710.5792 
    9700    292.41475    37.759775   -12337.506   -9785.1059   -9785.1059 
    9710    292.41413    37.759696   -12337.503   -9776.3607   -9776.3607 
    9720     301.4423    38.925511    -12338.67   -9769.8538   -9769.8538 
    9730    305.83905    39.493268   -12339.241   -9745.3798   -9745.3798 
    9740    284.21809    36.701333   -12336.444   -9669.0392   -9669.0392 
    9750    279.31672    36.068415    -12335.81   -9638.2259   -9638.2259 
    9760     305.4106    39.437941   -12339.185   -9650.2845   -9650.2845 
    9770    310.74965    40.127378   -12339.873    -9600.177    -9600.177 
    9780    307.89926    39.759303   -12339.502    -9587.903    -9587.903 
    9790    315.12482    40.692347   -12340.439   -9646.4014   -9646.4014 
    9800    300.48481     38.80187   -12338.546   -9635.7879   -9635.7879 
    9810    289.19787    37.344377   -12337.085   -9616.8177   -9616.8177 
    9820    311.43619     40.21603   -12339.964   -9693.2082   -9693.2082 
    9830     305.3758    39.433447   -12339.181   -9707.5013   -9707.5013 
    9840    270.86256    34.976722   -12334.716   -9648.9669   -9648.9669 
    9850    287.00015    37.060583   -12336.803   -9693.8505   -9693.8505 
    9860    320.15539    41.341949   -12341.092   -9729.9179   -9729.9179 
    9870    302.36436    39.044577   -12338.788   -9610.4679   -9610.4679 
    9880    294.59063    38.040748   -12337.782   -9555.5537   -9555.5537 
    9890    320.80465    41.425789   -12341.175   -9645.5135   -9645.5135 
    9900    309.63271    39.983146   -12339.729   -9650.8706   -9650.8706 
    9910    285.28973    36.839715    -12336.58   -9608.3514   -9608.3514 
    9920    299.14372    38.628693   -12338.374   -9669.2305   -9669.2305 
    9930    305.01851     39.38731   -12339.135   -9720.4681   -9720.4681 
    9940    280.98353    36.283652   -12336.024   -9676.8711   -9676.8711 
    9950    294.30752    38.004191   -12337.748   -9695.0307   -9695.0307 
    9960    319.40542    41.245104   -12340.995   -9714.8011   -9714.8011 
    9970     296.9686    38.347818   -12338.091    -9609.799    -9609.799 
    9980     285.4949    36.866209   -12336.608   -9578.2163   -9578.2163 
    9990    306.25871    39.547459   -12339.294   -9674.9312   -9674.9312 
   10000    307.34182    39.687321   -12339.433   -9701.3992   -9701.3992 
Loop time of 10.4974 on 1 procs for 10000 steps with 1000 atoms

Performance: 41.153 ns/day, 0.583 hours/ns, 952.615 timesteps/s
99.8% CPU use with 1 MPI tasks x no OpenMP threads

MPI task timing breakdown:
Section |  min time  |  avg time  |  max time  |%varavg| %total
---------------------------------------------------------------
Pair    | 8.4246     | 8.4246     | 8.4246     |   0.0 | 80.25
Neigh   | 1.3357     | 1.3357     | 1.3357     |   0.0 | 12.72
Comm    | 0.085787   | 0.085787   | 0.085787   |   0.0 |  0.82
Output  | 0.57339    | 0.57339    | 0.57339    |   0.0 |  5.46
Modify  | 0.057867   | 0.057867   | 0.057867   |   0.0 |  0.55
Other   |            | 0.02002    |            |       |  0.19

Nlocal:    1000 ave 1000 max 1000 min
Histogram: 1 0 0 0 0 0 0 0 0 0
Nghost:    2048 ave 2048 max 2048 min
Histogram: 1 0 0 0 0 0 0 0 0 0
Neighs:    0 ave 0 max 0 min
Histogram: 1 0 0 0 0 0 0 0 0 0
FullNghs:  33566 ave 33566 max 33566 min
Histogram: 1 0 0 0 0 0 0 0 0 0

Total # of neighbors = 33566
Ave neighs/atom = 33.566
Neighbor list builds = 1000
Dangerous builds not checked

Total wall time: 0:00:10
