
# Define the lattice
variable	lattice_constant equal 6.205
lattice		diamond ${lattice_constant}
lattice		diamond 6.205
Lattice spacing in x,y,z = 6.205 6.205 6.205

# Define region
# multiples of lattice spacing
region 		simbox block 0 5 0 5 0 5

# Create Atoms
create_box 	1 simbox
Created orthogonal box = (0 0 0) to (31.025 31.025 31.025)
  1 by 1 by 1 MPI processor grid
create_atoms 	1 box
Created 1000 atoms
  Time spent = 0.000205994 secs
mass		1 18.015

velocity	all create 600.0 97287

# Define Interatomic Potential
pair_style	sw
pair_coeff	* * mW.sw mW
Reading potential file mW.sw with DATE: 2019-02-27

neighbor 	2.0 bin
neigh_modify	delay 10 check no

# Pressure computations
compute		total_press all pressure thermo_temp
compute		peratom all stress/atom NULL
compute		p all reduce sum c_peratom[1] c_peratom[2] c_peratom[3]
variable	press equal -(c_p[1]+c_p[2]+c_p[3])/(3*vol)

# Density computations
variable	total_mass equal mass(all)
variable	v equal vol
print 		${total_mass}
print 		18014.9999999997
18014.9999999997
print		$v
print		29863.133140625
29863.133140625

variable 	density equal v_total_mass/(v_v*18.015)
print 		${density}
print 		0.0334861045989716
0.0334861045989716


# Run equilibration
thermo_style	custom step temp ke pe c_total_press v_press
thermo		10
dump		1 all atom 10 ${simname}.dump
dump		1 all atom 10 mW_liquid_6.205.dump

fix 		1 all nve
#temp 300.0 300.0 100.0 iso 0.0 0.0 1000.0
timestep	0.0005
run		10000
Neighbor list info ...
  update every 1 steps, delay 10 steps, check no
  max neighbors/atom: 2000, page size: 100000
  master list distance cutoff = 6.3065
  ghost atom cutoff = 6.3065
  binsize = 3.15325, bins = 10 10 10
  1 neighbor lists, perpetual/occasional/extra = 1 0 0
  (1) pair sw, perpetual
      attributes: full, newton on
      pair build: full/bin/atomonly
      stencil: full/bin/3d
      bin: standard
Per MPI rank memory allocation (min/avg/max) = 4.438 | 4.438 | 4.438 Mbytes
Step Temp KinEng PotEng c_total_press v_press 
       0          600    77.478531   -12377.959   -160.64386   -160.64386 
      10    357.35947    46.146145   -12346.567    213.97238    213.97238 
      20    173.32446     22.38154   -12322.775    108.69424    108.69424 
      30    324.43018    41.893956   -12342.347   -825.29866   -825.29866 
      40    271.28679    35.031504   -12335.469    -930.2615    -930.2615 
      50    140.08207    18.088922   -12318.486   -544.28174   -544.28174 
      60    297.92808    38.471716   -12338.912   -756.25377   -756.25377 
      70    362.72609    46.839141   -12347.288   -630.07813   -630.07813 
      80    248.81537     32.12975   -12332.535   -11.530618   -11.530618 
      90    339.63451    43.857304   -12344.289   -91.349591   -91.349591 
     100    409.23345    52.844678   -12353.298    -370.4958    -370.4958 
     110    253.94238    32.791805   -12333.204   -175.00537   -175.00537 
     120    245.87898    31.750571   -12332.168   -326.86356   -326.86356 
     130    350.82335    45.302129   -12345.752   -677.16111   -677.16111 
     140    277.10023    35.782199   -12336.206    -427.8364    -427.8364 
     150    247.56121    31.967798   -12332.383   -268.28457   -268.28457 
     160    346.71218     44.77125   -12345.216    -550.0623    -550.0623 
     170     305.3375    39.428502    -12339.86   -447.62517   -447.62517 
     180    239.96824    30.987311   -12331.399   -167.03698   -167.03698 
     190    333.46048    43.060047   -12343.497   -356.51013   -356.51013 
     200    356.13408    45.987909   -12346.429   -470.86136   -470.86136 
     210    262.88424    33.946474   -12334.364   -256.23898   -256.23898 
     220    277.15722    35.789557   -12336.215   -312.81709   -312.81709 
     230    329.95254    42.607063   -12343.047   -503.70964   -503.70964 
     240    288.90968    37.307162   -12337.733   -391.71424   -391.71424 
     250    277.10043    35.782224   -12336.206   -327.69556   -327.69556 
     260    316.85289    40.915494   -12341.351   -453.98709   -453.98709 
     270    297.27524    38.387415   -12338.816   -378.94681   -378.94681 
     280    282.92694    36.534606   -12336.957   -243.01687   -243.01687 
     290      332.714    42.963653   -12343.398   -347.81394   -347.81394 
     300    334.56532    43.202716   -12343.638   -397.54086   -397.54086 
     310    278.63295     35.98012   -12336.403   -263.42217   -263.42217 
     320    280.17408    36.179127   -12336.605    -274.3358    -274.3358 
     330    317.47854    40.996284   -12341.431   -418.87988   -418.87988 
     340    299.42774    38.665369   -12339.095   -436.09185   -436.09185 
     350    270.52852    34.933587   -12335.358   -445.53983   -445.53983 
     360    287.18828    37.084877   -12337.515   -564.13424   -564.13424 
     370    298.49534    38.544967   -12338.977   -559.87652   -559.87652 
     380    286.84486     37.04053   -12337.467    -402.1397    -402.1397 
     390    297.89945     38.46802   -12338.896   -315.42277   -315.42277 
     400     322.8319    41.687569   -12342.119   -269.61607   -269.61607 
     410    326.68984    42.185748   -12342.615   -158.14808   -158.14808 
     420    324.62506    41.919121   -12342.349   -142.18227   -142.18227 
     430    316.32042    40.846736   -12341.278   -277.36268   -277.36268 
     440    290.98042    37.574559   -12338.003   -411.86637   -411.86637 
     450    272.36404    35.170609   -12335.598   -506.27569   -506.27569 
     460    268.46926    34.667673   -12335.097   -566.43606   -566.43606 
     470    271.70685    35.085745   -12335.513   -537.15455   -537.15455 
     480    295.63246    38.175281   -12338.605   -470.21598   -470.21598 
     490    315.50897    40.741952   -12341.175   -401.34623   -401.34623 
     500    302.36122    39.044172   -12339.472   -274.62785   -274.62785 
     510    305.99226    39.513051    -12339.94    -185.3324    -185.3324 
     520    331.34436     42.78679    -12343.22    -230.8545    -230.8545 
     530    315.65276     40.76052   -12341.192    -312.8085    -312.8085 
     540    278.82568    36.005006    -12336.43   -361.82742   -361.82742 
     550     279.9761    36.153562   -12336.581   -416.50157   -416.50157 
     560    299.81599    38.715505   -12339.146   -453.38426   -453.38426 
     570    305.79419    39.487475   -12339.917   -435.58668   -435.58668 
     580    304.40485    39.308068   -12339.738   -401.95962   -401.95962 
     590    299.26648    38.644546   -12339.074   -383.30701   -383.30701 
     600    294.63152    38.046029   -12338.474   -355.26478   -355.26478 
     610    301.52762    38.936528   -12339.366   -301.33239   -301.33239 
     620    309.31459    39.942067   -12340.372   -263.24048   -263.24048 
     630    311.05437    40.166726   -12340.596   -299.69707   -299.69707 
     640    311.20982    40.186799   -12340.618   -372.84622   -372.84622 
     650    295.07751     38.10362   -12338.533   -385.49902   -385.49902 
     660    279.68729    36.116268   -12336.542   -389.02602   -389.02602 
     670    298.27219    38.516152   -12338.946   -465.42605   -465.42605 
     680    306.62418    39.594652   -12340.027   -483.18951   -483.18951 
     690    282.07586    36.424706   -12336.851   -399.47312   -399.47312 
     700    282.33877    36.458655   -12336.885   -358.51463   -358.51463 
     710    308.92897    39.892271   -12340.325   -361.51308   -361.51308 
     720    305.78849    39.486738   -12339.917   -325.24736   -325.24736 
     730    295.78305    38.194727   -12338.621   -336.17551   -336.17551 
     740    309.21947    39.929783   -12340.361   -405.67111   -405.67111 
     750    304.90573    39.372747   -12339.803   -391.43379   -391.43379 
     760    287.52095    37.127835   -12337.554   -337.78018   -337.78018 
     770    298.65161    38.565146   -12338.995    -366.2142    -366.2142 
     780    308.49048    39.835648   -12340.267   -389.65294   -389.65294 
     790    297.40881    38.404663   -12338.832   -366.06072   -366.06072 
     800    303.75117    39.223657   -12339.653      -385.17      -385.17 
     810    306.46883    39.574591   -12340.007   -356.72495   -356.72495 
     820    284.88381    36.787298   -12337.213   -240.06966   -240.06966 
     830    301.01966    38.870935   -12339.298   -240.04776   -240.04776 
     840    337.37463    43.565485   -12344.002   -346.51759   -346.51759 
     850    308.10696    39.786124   -12340.216   -364.49443   -364.49443 
     860    270.26958    34.900151   -12335.323   -405.87361   -405.87361 
     870    288.68305    37.277898   -12337.709   -537.56888   -537.56888 
     880    296.30471     38.26209   -12338.694   -548.73872   -548.73872 
     890    280.63525    36.238679   -12336.664   -449.77144   -449.77144 
     900    296.22183    38.251387   -12338.681   -404.56453   -404.56453 
     910    303.89492     39.24222   -12339.674   -315.01853   -315.01853 
     920    291.33012    37.619717   -12338.044   -195.86147   -195.86147 
     930    325.44947    42.025578   -12342.456   -267.65241   -267.65241 
     940    343.37508    44.340327   -12344.777   -360.77864   -360.77864 
     950    287.85333    37.170755   -12337.596   -298.55242   -298.55242 
     960    273.06956    35.261713   -12335.685   -328.42359   -328.42359 
     970    314.39273    40.597811   -12341.033    -455.7054    -455.7054 
     980    302.64311    39.080573   -12339.511   -423.15415   -423.15415 
     990    277.64946     35.85312   -12336.277   -384.21258   -384.21258 
    1000    295.69547    38.183417   -12338.615   -475.78369   -475.78369 
    1010    291.19311    37.602024   -12338.032   -466.37329   -466.37329 
    1020    279.70837     36.11899   -12336.543   -362.38691   -362.38691 
    1030    315.95707    40.799817   -12341.232   -344.05369   -344.05369 
    1040    327.64205    42.308707   -12342.742   -294.68079   -294.68079 
    1050     303.1017    39.139791   -12339.565   -212.64264   -212.64264 
    1060    309.01245    39.903051   -12340.334    -270.4104    -270.4104 
    1070    304.46598    39.315961   -12339.747   -344.45751   -344.45751 
    1080    283.54668    36.614633   -12337.039   -377.47958   -377.47958 
    1090    304.96831    39.380827   -12339.811     -507.683     -507.683 
    1100    308.81002    39.876911   -12340.313   -602.83998   -602.83998 
    1110    250.88877    32.397489   -12332.821   -484.96378   -484.96378 
    1120    253.77729    32.770486   -12333.192   -375.52399   -375.52399 
    1130    329.78768    42.585775   -12343.022   -369.03048   -369.03048 
    1140    340.22976     43.93417   -12344.367   -270.50352   -270.50352 
    1150    306.76734    39.613138   -12340.038   -200.07113   -200.07113 
    1160    307.40426    39.695384   -12340.126   -303.62712   -303.62712 
    1170    301.19771    38.893927   -12339.325   -396.27407   -396.27407 
    1180    281.48155    36.347962   -12336.774   -401.77156   -401.77156 
    1190    289.01201    37.320377    -12337.75   -433.32476   -433.32476 
    1200    294.46118    38.024033   -12338.455   -441.13732   -441.13732 
    1210    287.28878    37.097855   -12337.524   -360.19962   -360.19962 
    1220    310.31267     40.07095   -12340.499   -277.42751   -277.42751 
    1230    342.96752      44.2877   -12344.721   -243.33282   -243.33282 
    1240    330.27024    42.648089    -12343.08   -238.59708   -238.59708 
    1250     290.2941    37.485934   -12337.913    -290.0179    -290.0179 
    1260    275.46826     35.57146   -12335.998   -415.02344   -415.02344 
    1270    288.35004    37.234896   -12337.665   -530.65273   -530.65273 
    1280    295.15404    38.113503   -12338.545   -552.18852   -552.18852 
    1290    279.23816     36.05827   -12336.486   -492.42529   -492.42529 
    1300    274.42303    35.436489   -12335.862   -444.42431   -444.42431 
    1310    301.79108     38.97055     -12339.4   -414.24656   -414.24656 
    1320    322.30241    41.619195   -12342.052   -325.62063   -325.62063 
    1330    310.29765     40.06901   -12340.498   -218.85117   -218.85117 
    1340    301.13322    38.885599   -12339.313   -237.57571   -237.57571 
    1350    309.05021    39.907927    -12340.34   -365.65901   -365.65901 
    1360    295.45945     38.15294   -12338.583   -413.78523   -413.78523 
    1370     279.9207    36.146407   -12336.572   -380.99471   -380.99471 
    1380    301.49818    38.932726   -12339.361   -372.81808   -372.81808 
    1390      327.966     42.35054   -12342.784    -368.9557    -368.9557 
    1400    314.76114    40.645385   -12341.075   -313.85352   -313.85352 
    1410     291.0351     37.58162   -12338.008   -277.94093   -277.94093 
    1420    296.62806    38.303844   -12338.734    -354.5921    -354.5921 
    1430    296.90754    38.339934   -12338.772   -470.62126   -470.62126 
    1440    268.01714     34.60929   -12335.037   -511.28789   -511.28789 
    1450    258.28214    33.352201   -12333.777   -477.14302   -477.14302 
    1460    299.87532    38.723165   -12339.152   -423.37645   -423.37645 
    1470    344.68157    44.509036   -12344.943   -344.42712   -344.42712 
    1480    337.22986     43.54679   -12343.978   -219.78537   -219.78537 
    1490    303.46174    39.186283   -12339.612   -161.69257   -161.69257 
    1500    297.96601    38.476615   -12338.905   -286.82778   -286.82778 
    1510    303.09299    39.138665    -12339.57   -469.01835   -469.01835 
    1520      283.277     36.57981   -12337.009   -526.30418   -526.30418 
    1530    264.98977    34.218363   -12334.643   -471.07107   -471.07107 
    1540    287.22231    37.089272   -12337.518   -408.40769   -408.40769 
    1550    314.91092    40.664726   -12341.096   -320.83017   -320.83017 
    1560    322.40644    41.632628   -12342.062   -241.80877   -241.80877 
    1570    326.37638    42.145271   -12342.576   -268.02856   -268.02856 
    1580    312.58222    40.364019   -12340.796   -358.50061   -358.50061 
    1590    274.48006    35.443853   -12335.871   -431.08447   -431.08447 
    1600    257.82821    33.293585   -12333.718    -487.2141    -487.2141 
    1610    284.52596    36.741089   -12337.171   -520.60853   -520.60853 
    1620    308.75977    39.870422   -12340.302   -471.03096   -471.03096 
    1630    311.52275    40.227209   -12340.657   -365.40081   -365.40081 
    1640    307.30148    39.682112   -12340.111   -253.91627   -253.91627 
    1650    310.11469    40.045385   -12340.473   -190.08843   -190.08843 
    1660    324.56354    41.911177   -12342.342   -227.06649   -227.06649 
    1670    322.09871    41.592891   -12342.025   -311.40663   -311.40663 
    1680     292.7689    37.805507   -12338.233   -395.93939   -395.93939 
    1690    273.35031    35.297968   -12335.726   -506.90014   -506.90014 
    1700    269.71941    34.829107   -12335.259   -584.47502   -584.47502 
    1710    266.44395    34.406143   -12334.833   -564.83853   -564.83853 
    1720    282.94727    36.537231   -12336.965   -508.76401   -508.76401 
    1730      310.314    40.071122   -12340.504   -424.39754   -424.39754 
    1740     304.6379    39.338162   -12339.767   -248.67266   -248.67266 
    1750    305.75518    39.482437   -12339.906   -121.77022   -121.77022 
    1760     353.3458    45.627856   -12346.061   -185.25088   -185.25088 
    1770    356.08348    45.981375   -12346.417   -253.77805   -253.77805 
    1780    289.46465    37.378827   -12337.804    -243.0185    -243.0185 
    1790    264.40107    34.142344   -12334.566   -331.06208   -331.06208 
    1800    296.02105    38.225461   -12338.657   -487.64061   -487.64061 
    1810    304.66039    39.341066   -12339.773   -538.60196   -538.60196 
    1820    287.81241    37.165471   -12337.594   -519.53177   -519.53177 
    1830    279.82638    36.134228   -12336.563   -493.75897   -493.75897 
    1840    282.93425     36.53555   -12336.963   -425.81939   -425.81939 
    1850    299.92798    38.729966   -12339.159   -345.31509   -345.31509 
    1860     315.3263    40.718365   -12341.149   -287.20003   -287.20003 
    1870    313.64668    40.501474    -12340.93   -266.01689   -266.01689 
    1880    313.50125    40.482694   -12340.912   -322.20756   -322.20756 
    1890     306.8957    39.629714   -12340.061   -393.81592   -393.81592 
    1900    282.81968    36.520755   -12336.947   -413.27351   -413.27351 
    1910    283.12868    36.560656   -12336.988   -471.09232   -471.09232 
    1920    297.23704    38.382482   -12338.815   -522.50862   -522.50862 
    1930    279.84921    36.137176   -12336.565   -435.80947   -435.80947 
    1940    274.12854    35.398461   -12335.823    -333.2661    -333.2661 
    1950    314.20961    40.574165   -12341.006    -342.0984    -342.0984 
    1960    328.16542    42.376291   -12342.809   -302.22094   -302.22094 
    1970    309.19613     39.92677   -12340.352   -210.60988   -210.60988 
    1980     318.7363    41.158701   -12341.588   -260.59155   -260.59155 
    1990    321.88961     41.56589       -12342   -367.77078   -367.77078 
    2000    281.80798    36.390114   -12336.816   -376.20768   -376.20768 
    2010    269.29848    34.774752     -12335.2   -412.99712   -412.99712 
    2020    298.63253    38.562683   -12338.995   -512.77882   -512.77882 
    2030    300.41849    38.793305   -12339.224   -493.27229   -493.27229 
    2040    286.81268    37.036375   -12337.462   -372.86059   -372.86059 
    2050    303.63015     39.20803   -12339.636   -296.96633   -296.96633 
    2060    328.76326    42.453491   -12342.886   -280.15787   -280.15787 
    2070    320.93125    41.442137   -12341.872   -274.67566   -274.67566 
    2080    301.38076    38.917565   -12339.346   -331.72502   -331.72502 
    2090    290.92291    37.567133   -12337.996   -431.03815   -431.03815 
    2100    281.00555    36.286496   -12336.715   -487.37886   -487.37886 
    2110    279.54941    36.098462   -12336.526   -506.89026   -506.89026 
    2120    289.00519    37.319495   -12337.749   -492.90039   -492.90039 
    2130    294.60447    38.042536   -12338.472   -422.50424   -422.50424 
    2140    298.11712    38.496128   -12338.924   -345.47042   -345.47042 
    2150    315.14104    40.694442   -12341.124   -327.07048   -327.07048 
    2160    322.53952    41.649814   -12342.082   -303.72576   -303.72576 
    2170    302.18119    39.020924   -12339.448     -250.166     -250.166 
    2180     298.9122    38.598797   -12339.026   -282.84187   -282.84187 
    2190    316.54779    40.876097   -12341.308   -370.03416   -370.03416 
    2200    304.10512    39.269363     -12339.7   -393.01098   -393.01098 
    2210    279.41795    36.081487   -12336.507   -425.90202   -425.90202 
    2220    283.56295    36.616735   -12337.047   -518.36522   -518.36522 
    2230     281.7953    36.388476   -12336.819   -514.32406   -514.32406 
    2240    274.94615     35.50404   -12335.929   -422.72795   -422.72795 
    2250    308.16086    39.793084   -12340.223   -389.13187   -389.13187 
    2260    330.32542    42.655214   -12343.089   -325.44772   -325.44772 
    2270    305.26937    39.419704   -12339.846   -206.16849   -206.16849 
    2280    306.31073    39.554175   -12339.981   -232.29143   -232.29143 
    2290    324.17821    41.861419   -12342.296   -349.27058   -349.27058 
    2300    288.24803    37.221723   -12337.649   -366.61211   -366.61211 
    2310    269.48619     34.79899   -12335.222   -411.68972   -411.68972 
    2320    311.01241    40.161308   -12340.595   -524.47667   -524.47667 
    2330    310.13777    40.048365   -12340.481   -480.21402   -480.21402 
    2340    276.52686    35.708159   -12336.132   -371.21397   -371.21397 
    2350    294.52833    38.032704   -12338.462   -388.98393   -388.98393 
    2360    312.33935    40.332657   -12340.766   -381.69486   -381.69486 
    2370    296.01975    38.225292   -12338.651   -305.51823   -305.51823 
    2380    307.35458    39.688968   -12340.118   -322.89894   -322.89894 
    2390    316.93953    40.926682   -12341.359   -343.01134   -343.01134 
    2400    296.53931    38.292384   -12338.717   -301.52733   -301.52733 
    2410    313.36424    40.465001   -12340.895   -364.83407   -364.83407 
    2420    315.60768    40.754699    -12341.19   -408.87668   -408.87668 
    2430    263.66563    34.047376    -12334.47   -350.78432   -350.78432 
    2440     275.9204    35.629845   -12336.055    -441.4407    -441.4407 
    2450    321.94779    41.573403   -12342.012   -539.74436   -539.74436 
    2460    283.49273    36.607667   -12337.034   -372.93154   -372.93154 
    2470    273.14847    35.271903   -12335.692   -278.51803   -278.51803 
    2480    340.80459    44.008398   -12344.447   -397.36823   -397.36823 
    2490     319.5384    41.262277   -12341.695   -346.45019   -346.45019 
    2500    265.61056    34.298527   -12334.717   -294.90597   -294.90597 
    2510    308.59591    39.849263   -12340.284   -494.23195   -494.23195 
    2520    304.09717    39.268337   -12339.704   -518.68623   -518.68623 
    2530    241.52004    31.187696   -12331.604   -353.01763   -353.01763 
    2540    293.38714     37.88534   -12338.314     -410.392     -410.392 
    2550    352.37518    45.502518   -12345.943   -413.59004   -413.59004 
    2560    305.86628    39.496783    -12339.92   -176.28003   -176.28003 
    2570    309.52582    39.969343   -12340.395    -176.1975    -176.1975 
    2580    339.70315    43.866168   -12344.306   -322.51973   -322.51973 
    2590    280.03096    36.160646   -12336.584   -263.93919   -263.93919 
    2600    272.32676    35.165796   -12335.587   -327.22909   -327.22909 
    2610    337.32599    43.559203       -12344   -540.27045   -540.27045 
    2620     299.9166    38.728496   -12339.159   -467.94379   -467.94379 
    2630      247.564    31.968158   -12332.386   -361.56271   -361.56271 
    2640    299.99693     38.73887   -12339.173   -510.28747   -510.28747 
    2650    308.08156    39.782845   -12340.217   -501.17699   -501.17699 
    2660    267.17591    34.500662   -12334.921   -342.33085   -342.33085 
    2670    300.40905    38.792087   -12339.223   -366.89731   -366.89731 
    2680     318.7892    41.165531     -12341.6   -324.63142   -324.63142 
    2690    291.72646    37.670896   -12338.092   -156.93963   -156.93963 
    2700    334.47884    43.191548   -12343.622   -244.44995   -244.44995 
    2710    359.15492    46.377992   -12346.818   -389.09242   -389.09242 
    2720    282.80939    36.519427   -12336.944   -332.39915   -332.39915 
    2730    250.74052    32.378345   -12332.801   -409.91699   -409.91699 
    2740    286.66221    37.016945   -12337.452   -610.73291   -610.73291 
    2750    278.03116     35.90241   -12336.331   -541.41067   -541.41067 
    2760     276.1959    35.665421   -12336.089    -366.5576    -366.5576 
    2770    327.86815    42.337904   -12342.772   -348.41098   -348.41098 
    2780    336.49533     43.45194   -12343.885   -294.47547   -294.47547 
    2790    305.97228    39.510471   -12339.937    -206.9527    -206.9527 
    2800    300.96757    38.864209   -12339.294   -262.41719   -262.41719 
    2810     295.9987    38.222574   -12338.652   -344.00166   -344.00166 
    2820    288.19026    37.214264   -12337.641   -374.07209   -374.07209 
    2830    300.51284    38.805488   -12339.237    -445.5594    -445.5594 
    2840    294.19874    37.990143    -12338.42    -465.4375    -465.4375 
    2850    287.09832    37.073261   -12337.498   -425.05847   -425.05847 
    2860    315.38806    40.726339   -12341.159   -462.42313   -462.42313 
    2870    306.13737    39.531789   -12339.965   -449.24003   -449.24003 
    2880    259.33293     33.48789   -12333.909   -303.82459   -303.82459 
    2890    289.54864    37.389672   -12337.815     -272.267     -272.267 
    2900    355.08515    45.852459   -12346.291   -358.85283   -358.85283 
    2910     327.0886     42.23724   -12342.669   -318.91025   -318.91025 
    2920    270.56881     34.93879   -12335.361   -280.31831   -280.31831 
    2930    281.93682    36.406752   -12336.836   -423.22544   -423.22544 
    2940    295.27384    38.128972   -12338.561   -532.14362   -532.14362 
    2950    280.48032    36.218672   -12336.644   -471.78559   -471.78559 
    2960    301.31783    38.909437   -12339.339    -406.3618    -406.3618 
    2970    322.62412    41.660738   -12342.094   -336.76454   -336.76454 
    2980    303.45626    39.185575   -12339.612   -217.42114   -217.42114 
    2990    308.23225    39.802303   -12340.229    -200.7986    -200.7986 
    3000    332.11476    42.886273   -12343.321   -295.00333   -295.00333 
    3010    303.52288    39.194179   -12339.624   -344.22352   -344.22352 
    3020     268.6816    34.695092   -12335.119   -395.62202   -395.62202 
    3030     285.2847    36.839065   -12337.269   -503.68421   -503.68421 
    3040    298.23109    38.510845   -12338.942   -532.14167   -532.14167 
    3050    292.39608    37.757365   -12338.185   -478.92879   -478.92879 
    3060    299.30534    38.649564    -12339.08   -431.73345   -431.73345 
    3070    294.79402    38.067013   -12338.496   -352.63295   -352.63295 
    3080     291.4667    37.637353   -12338.063   -290.14016   -290.14016 
    3090    319.32604    41.234854   -12341.667   -322.48391   -322.48391 
    3100     314.1896    40.571581   -12341.004   -325.21256   -325.21256 
    3110    279.74289    36.123446   -12336.547   -323.98186   -323.98186 
    3120    298.15923    38.501565   -12338.931    -454.5259    -454.5259 
    3130    316.79626    40.908181   -12341.343   -525.58124   -525.58124 
    3140    280.54151    36.226574   -12336.651   -412.92462   -412.92462 
    3150    282.91351    36.532872   -12336.958   -353.21016   -353.21016 
    3160    318.09483    41.075866   -12341.511    -333.3104    -333.3104 
    3170    300.63047    38.820679   -12339.248   -205.99312   -205.99312 
    3180    299.75129    38.707149   -12339.131   -190.55589   -190.55589 
    3190    344.59614    44.498005   -12344.934   -345.62151   -345.62151 
    3200    323.34596    41.753949   -12342.188   -396.74958   -396.74958 
    3210    258.56155    33.388282    -12333.81   -385.77487   -385.77487 
    3220    265.83492    34.327498   -12334.755   -501.88839   -501.88839 
    3230    294.86209    38.075803   -12338.509    -538.4811    -538.4811 
    3240    290.28383    37.484607   -12337.912   -410.61335   -410.61335 
    3250    302.81662    39.102979   -12339.532   -339.01239   -339.01239 
    3260    317.01191    40.936028   -12341.368   -307.43824   -307.43824 
    3270    306.01974    39.516599   -12339.944   -249.28271   -249.28271 
    3280    313.55899     40.49015   -12340.918   -282.29205   -282.29205 
    3290    326.19049    42.121266   -12342.555   -365.28642   -365.28642 
    3300    293.10113    37.848408   -12338.277   -364.76771   -364.76771 
    3310    267.12263    34.493782   -12334.918   -395.09313   -395.09313 
    3320     286.3651    36.978579   -12337.409   -482.70502   -482.70502 
    3330    298.15046    38.500432   -12338.931   -449.29911   -449.29911 
    3340    301.71402    38.960598   -12339.388   -363.31654   -363.31654 
    3350    316.47282    40.866415   -12341.299   -368.49788   -368.49788 
    3360    302.49824    39.061866   -12339.492   -342.82542   -342.82542 
    3370    281.24605    36.317552   -12336.742   -283.51143   -283.51143 
    3380    308.12378    39.788296   -12340.218   -348.57574   -348.57574 
    3390    329.10875    42.498104   -12342.934    -426.0559    -426.0559 
    3400    285.79827    36.905383   -12337.332   -351.57038   -351.57038 
    3410    264.90847    34.207865    -12334.63   -333.63859   -333.63859 
    3420    308.87415    39.885192   -12340.318    -449.0584    -449.0584 
    3430    319.05751    41.200178   -12341.634   -428.56436   -428.56436 
    3440    288.43903    37.246387   -12337.671   -299.90016   -299.90016 
    3450    296.20574    38.249309   -12338.678   -307.69957   -307.69957 
    3460    314.19842     40.57272   -12341.006   -374.10189   -374.10189 
    3470    295.79306     38.19602   -12338.623   -356.89163   -356.89163 
    3480    294.91881    38.083127   -12338.511   -390.38153   -390.38153 
    3490    307.17274    39.665487   -12340.099   -461.71016   -461.71016 
    3500    279.68502    36.115974   -12336.544   -407.78528   -407.78528 
    3510    267.90599    34.594937   -12335.018   -325.70467   -325.70467 
    3520     312.4536    40.347409   -12340.779   -319.17566   -319.17566 
    3530    333.88255    43.114549   -12343.547   -258.55757   -258.55757 
    3540    319.53272    41.261542   -12341.688   -198.25364   -198.25364 
    3550    321.73782    41.546289   -12341.977   -290.58807   -290.58807 
    3560    307.07488    39.652851   -12340.084   -400.14598   -400.14598 
    3570    272.94635    35.245804   -12335.671   -447.17928   -447.17928 
    3580    275.28194    35.547401   -12335.976   -509.73197   -509.73197 
    3590    288.36333    37.236612   -12337.668   -486.05544   -486.05544 
    3600    284.35429    36.718921   -12337.145   -321.97774   -321.97774 
    3610    306.93535    39.634833   -12340.063   -235.48312   -235.48312 
    3620    335.00598    43.259618   -12343.694    -293.4077    -293.4077 
    3630    315.59931    40.753618   -12341.183   -345.06061   -345.06061 
    3640    292.79132    37.808402   -12338.235   -393.95667   -393.95667 
    3650    291.90403    37.693825   -12338.125   -461.81367   -461.81367 
    3660    280.02561    36.159954   -12336.588   -463.38122   -463.38122 
    3670    278.53214    35.967102   -12336.394   -427.41907   -427.41907 
    3680    298.99247    38.609163    -12339.04   -405.31465   -405.31465 
    3690    302.40804    39.050217   -12339.481   -353.79622   -353.79622 
    3700    295.29572    38.131798   -12338.559   -299.54806   -299.54806 
    3710    308.42155    39.826747   -12340.257    -333.5381    -333.5381 
    3720    314.96571      40.6718   -12341.104   -388.47673   -388.47673 
    3730    295.11476     38.10843   -12338.536   -333.84365   -333.84365 
    3740    290.42452    37.502776   -12337.929    -239.5053    -239.5053 
    3750    320.27629    41.357561   -12341.789   -260.95089   -260.95089 
    3760    330.25028    42.645511    -12343.08   -344.05139   -344.05139 
    3770    288.84539    37.298861   -12337.727   -371.20726   -371.20726 
    3780    261.22153    33.731767   -12334.155   -423.82791   -423.82791 
    3790    295.82549    38.200208   -12338.631   -535.06448   -535.06448 
    3800    317.06255    40.942568   -12341.377   -481.58082   -481.58082 
    3810    289.13516    37.336279   -12337.762   -272.17554   -272.17554 
    3820    298.35861    38.527311   -12338.954   -220.42384   -220.42384 
    3830    336.00976    43.389238   -12343.824   -285.94671   -285.94671 
    3840     319.1202    41.208273   -12341.638   -252.77331   -252.77331 
    3850    293.45378    37.893947    -12338.32   -285.24224   -285.24224 
    3860    299.82402    38.716541   -12339.149   -462.28583   -462.28583 
    3870    279.77892    36.128099   -12336.558   -533.16938   -533.16938 
    3880     260.0087    33.575154       -12334   -517.35251   -517.35251 
    3890    285.57441    36.876477   -12337.308   -525.83848   -525.83848 
    3900    295.12274    38.109461   -12338.541   -417.39579   -417.39579 
    3910    288.08654     37.20087   -12337.625   -266.45191   -266.45191 
    3920     327.0248    42.229001   -12342.661   -300.71782   -300.71782 
    3930    340.67428    43.991571   -12344.427   -308.14972   -308.14972 
    3940    296.94114    38.344272   -12338.768   -176.39375   -176.39375 
    3950    304.13988    39.273851   -12339.701   -226.50356   -226.50356 
    3960    332.01511    42.873405    -12343.31   -394.86122   -394.86122 
    3970    286.08524     36.94244   -12337.371    -401.4559    -401.4559 
    3980    251.02494    32.415073   -12332.836   -426.18827   -426.18827 
    3990     293.4342    37.891417   -12338.324   -587.89873   -587.89873 
    4000    303.70606    39.217832   -12339.652   -558.63656   -558.63656 
    4010    271.80649    35.098612   -12335.522   -367.43081   -367.43081 
    4020    297.26085    38.385557   -12338.814   -340.39497   -340.39497 
    4030    333.06612    43.009123   -12343.444     -333.587     -333.587 
    4040    312.62166    40.369111   -12340.796   -194.35459   -194.35459 
    4050    308.30777    39.812056   -12340.239   -198.94116   -198.94116 
    4060    325.26358    42.001574   -12342.436    -350.4068    -350.4068 
    4070    291.07005    37.586133   -12338.015   -370.93303   -370.93303 
    4080    262.99486    33.960758   -12334.384   -378.34228   -378.34228 
    4090    296.84433    38.331771   -12338.763   -498.86688   -498.86688 
    4100     310.5408    40.100409   -12340.535   -483.12059   -483.12059 
    4110    279.45418    36.086165    -12336.51   -309.38531   -309.38531 
    4120    300.04971    38.745685   -12339.172   -295.60729   -295.60729 
    4130    343.22506    44.320955   -12344.758   -365.17185   -365.17185 
    4140    312.08038    40.299215   -12340.729   -286.51801   -286.51801 
    4150    272.27444    35.159039   -12335.582   -252.16019   -252.16019 
    4160    295.62173    38.173895   -12338.604   -375.37483   -375.37483 
    4170      310.695    40.120321   -12340.553   -427.26864   -427.26864 
    4180    289.81013    37.423438    -12337.85    -414.6995    -414.6995 
    4190    287.33604    37.103957   -12337.533   -488.33737   -488.33737 
    4200    287.56259    37.133212   -12337.563   -491.94962   -491.94962 
    4210    283.99012    36.671895   -12337.097    -379.5918    -379.5918 
    4220    315.50006    40.740802   -12341.171   -336.55505   -336.55505 
    4230    335.71657    43.351378   -12343.786    -290.3085    -290.3085 
    4240    306.50813    39.579666   -12340.007   -173.35428   -173.35428 
    4250    297.60826    38.430419   -12338.857   -215.76778   -215.76778 
    4260    310.68858    40.119492   -12340.554   -390.78679   -390.78679 
    4270    279.44744    36.085295   -12336.514   -456.31366   -456.31366 
    4280    257.94218    33.308301   -12333.732   -526.09268   -526.09268 
    4290    290.34232    37.492161   -12337.925   -659.29803   -659.29803 
    4300    288.14271    37.208122    -12337.64   -533.36803   -533.36803 
    4310    267.08714    34.489198   -12334.909   -222.67211   -222.67211 
    4320    332.52514    42.939266    -12343.37   -166.12438   -166.12438 
    4330    384.23579    49.616707   -12350.058   -225.05606   -225.05606 
    4340    318.05867    41.071198   -12341.498    -140.0582    -140.0582 
    4350    271.51353    35.060783   -12335.481   -190.49711   -190.49711 
    4360    314.34188    40.591245   -12341.026   -449.46466   -449.46466 
    4370    307.12322    39.659093   -12340.093   -505.85413   -505.85413 
    4380    253.33511    32.713386   -12333.134   -392.91602   -392.91602 
    4390    281.16227    36.306732   -12336.735   -452.35508   -452.35508 
    4400    317.66472    41.020326   -12341.457   -483.39494   -483.39494 
    4410    288.07232    37.199034   -12337.624   -347.17376   -347.17376 
    4420    294.17754    37.987406   -12338.413   -353.33873   -353.33873 
    4430    330.00113    42.613338   -12343.051   -449.89597   -449.89597 
    4440     288.5166    37.256403   -12337.684   -337.43164   -337.43164 
    4450    261.55772     33.77518   -12334.195   -264.05617   -264.05617 
    4460    320.37093    41.369781   -12341.804   -390.33764   -390.33764 
    4470    330.87631    42.726351   -12343.161    -375.4786    -375.4786 
    4480     288.4383    37.246294   -12337.669    -275.2274    -275.2274 
    4490     298.6541    38.565469   -12338.996   -375.17911   -375.17911 
    4500    299.96986    38.735373   -12339.169   -440.64581   -440.64581 
    4510    270.17773    34.888289    -12335.31   -367.16877   -367.16877 
    4520    305.18456    39.408752   -12339.838    -432.6478    -432.6478 
    4530    333.79169    43.102817   -12343.541   -496.00269   -496.00269 
    4540    278.69063    35.987568   -12336.412   -348.43445   -348.43445 
    4550    268.72081    34.700156   -12335.122   -282.80918   -282.80918 
    4560    324.98882    41.966093   -12342.402   -352.50657   -352.50657 
    4570    318.17338     41.08601   -12341.516    -268.3455    -268.3455 
    4580    299.01122    38.611583   -12339.035   -224.20242   -224.20242 
    4590    329.93223     42.60444    -12343.04   -405.04004   -405.04004 
    4600    306.10661    39.527818    -12339.96   -486.40135   -486.40135 
    4610    251.89721     32.52771   -12332.948   -441.08652   -441.08652 
    4620    276.87522    35.753143   -12336.183   -513.63317   -513.63317 
    4630    301.11513    38.883264   -12339.318   -499.58572   -499.58572 
    4640    279.71329    36.119625   -12336.544   -292.26545   -292.26545 
    4650    305.99959    39.513997   -12339.941   -195.33244   -195.33244 
    4660    351.15151    45.344505   -12345.781   -234.37185   -234.37185 
    4670    329.69099     42.57329   -12343.004   -230.83375   -230.83375 
    4680    291.22595    37.606264   -12338.032   -286.96603   -286.96603 
    4690    286.59887    37.008766   -12337.439   -458.92184   -458.92184 
    4700    282.01973    36.417458   -12336.847   -553.76565   -553.76565 
    4710    276.65473     35.72467   -12336.153   -536.04224   -536.04224 
    4720    282.70959     36.50654   -12336.936   -485.89822   -485.89822 
    4730     294.6606    38.049784   -12338.478   -391.68993   -391.68993 
    4740    316.15953     40.82596   -12341.256   -259.15612   -259.15612 
    4750    324.85164     41.94838   -12342.379   -151.21593   -151.21593 
    4760    319.53529    41.261875    -12341.69   -169.19084   -169.19084 
    4770      322.686    41.668729     -12342.1   -310.86107   -310.86107 
    4780    306.76515    39.612855   -12340.045    -415.3752    -415.3752 
    4790    266.95539    34.472185   -12334.897   -431.73719   -431.73719 
    4800    269.32138    34.777708   -12335.203   -487.84993   -487.84993 
    4810    304.45073    39.313992   -12339.748   -564.13715   -564.13715 
    4820    293.08101     37.84581   -12338.276   -484.83358   -484.83358 
    4830    273.17424    35.275231   -12335.699   -325.61265   -325.61265 
    4840     305.1895     39.40939   -12339.839   -277.96268   -277.96268 
    4850    332.45158    42.929767   -12343.363   -310.06996   -310.06996 
    4860    314.18691    40.571234   -12341.001   -331.51755   -331.51755 
    4870    290.55875    37.520109   -12337.947   -347.45065   -347.45065 
    4880    289.30205    37.357829   -12337.786   -376.65802   -376.65802 
    4890    300.48636    38.802069   -12339.232   -404.08154   -404.08154 
    4900    305.80952    39.489454   -12339.921   -397.36625   -397.36625 
    4910    291.67319    37.664017   -12338.092   -337.11048   -337.11048 
    4920    289.08365    37.329628   -12337.756   -309.45852   -309.45852 
    4930    310.48577    40.093302   -12340.524   -339.75146   -339.75146 
    4940    316.41924    40.859497    -12341.29    -340.8049    -340.8049 
    4950    307.89529    39.758791   -12340.187   -345.63169   -345.63169 
    4960    302.71525    39.089888    -12339.52   -398.60103   -398.60103 
    4970    286.15032    36.950845    -12337.38   -420.04332   -420.04332 
    4980    275.50336    35.575993   -12336.002   -401.29548   -401.29548 
    4990    296.51517    38.289266    -12338.72    -392.0122    -392.0122 
    5000    306.34646    39.558789    -12339.99   -334.29207   -334.29207 
    5010    303.04843    39.132912    -12339.56   -291.62585   -291.62585 
    5020    319.72637     41.28655   -12341.718   -340.60956   -340.60956 
    5030    318.51244    41.129793   -12341.562   -347.19276   -347.19276 
    5040    289.91233    37.436636   -12337.863   -302.37081   -302.37081 
    5050    291.29231    37.614834   -12338.043   -380.26066   -380.26066 
    5060    301.75382    38.965738   -12339.399    -498.8486    -498.8486 
    5070     274.3785    35.430738   -12335.858    -465.1027    -465.1027 
    5080      270.996    34.993954   -12335.418    -395.0121    -395.0121 
    5090    313.63126    40.499482   -12340.932   -386.96706   -386.96706 
    5100    327.90293    42.342396   -12342.775   -342.22935   -342.22935 
    5110    310.14144    40.048838   -12340.477    -309.6719    -309.6719 
    5120    296.23502     38.25309   -12338.683    -342.0811    -342.0811 
    5130    280.63618    36.238798   -12336.666   -336.23168   -336.23168 
    5140    287.12369    37.076536   -12337.503   -338.16833   -338.16833 
    5150    319.07584    41.202545   -12341.636   -405.66456   -405.66456 
    5160    314.78733    40.648766    -12341.08   -387.03562   -387.03562 
    5170    288.44577    37.247258   -12337.672   -302.65585   -302.65585 
    5180    302.95102    39.120334    -12339.55   -330.92125   -330.92125 
    5190    317.28981    40.971914   -12341.406   -389.46996   -389.46996 
    5200    287.05535    37.067711   -12337.494   -363.88931   -363.88931 
    5210    279.55497    36.099181   -12336.525   -406.82337   -406.82337 
    5220    304.16738    39.277403    -12339.71   -494.10016   -494.10016 
    5230    296.87564    38.335815   -12338.766   -441.89846   -441.89846 
    5240    281.76304    36.384311    -12336.81    -363.2046    -363.2046 
    5250     300.7897     38.84124   -12339.271   -387.46739   -387.46739 
    5260    316.49863    40.869748   -12341.302   -376.63923   -376.63923 
    5270    306.77399    39.613997   -12340.043   -298.81381   -298.81381 
    5280    299.17066    38.632172   -12339.061   -288.63649   -288.63649 
    5290    299.94029    38.731555   -12339.161   -320.90463   -320.90463 
    5300    303.70117    39.217201   -12339.646   -316.86885   -316.86885 
    5310    313.61969    40.497988   -12340.928   -328.56743   -328.56743 
    5320    311.37613    40.208275   -12340.639   -350.34396   -350.34396 
    5330    297.75509    38.449378   -12338.877   -350.93494   -350.93494 
    5340    297.26515    38.386112   -12338.815   -395.63628   -395.63628 
    5350    295.43525    38.149815   -12338.581   -451.36676   -451.36676 
    5360    278.86308    36.009836   -12336.437   -421.92442   -421.92442 
    5370    281.22328    36.314611   -12336.742   -394.38143   -394.38143 
    5380    303.57704    39.201172   -12339.633   -436.39433   -436.39433 
    5390    300.95621    38.862742   -12339.293    -401.9907    -401.9907 
    5400    288.30514    37.229098   -12337.655   -291.86629   -291.86629 
    5410    308.49107    39.835724   -12340.265   -292.43559   -292.43559 
    5420    329.59249     42.56057   -12342.995    -367.2408    -367.2408 
    5430    302.11782    39.012741   -12339.441    -330.3782    -330.3782 
    5440    281.48883    36.348901   -12336.773   -319.04916   -319.04916 
    5450    305.40509    39.437229   -12339.869   -444.50159   -444.50159 
    5460    307.35915     39.68956   -12340.122    -473.2749    -473.2749 
    5470     275.9146    35.629097   -12336.054   -358.23711   -358.23711 
    5480    283.10863    36.558068   -12336.985   -349.43545   -349.43545 
    5490    312.64499    40.372124   -12340.806   -408.09972   -408.09972 
    5500    300.56184    38.811816    -12339.24   -336.93246   -336.93246 
    5510    296.27292    38.257984   -12338.684   -308.69698   -308.69698 
    5520     323.6638    41.794993   -12342.229   -405.48102   -405.48102 
    5530    306.01793    39.516366   -12339.947   -379.22904   -379.22904 
    5540    273.39887    35.304238   -12335.726   -288.50201   -288.50201 
    5550    307.64719    39.726754   -12340.157   -364.41521   -364.41521 
    5560    328.31301    42.395349   -12342.831   -392.57891   -392.57891 
    5570     290.6832    37.536179   -12337.961   -281.75702   -281.75702 
    5580    289.94995    37.441493   -12337.868    -313.1769    -313.1769 
    5590    314.69513     40.63686   -12341.071   -410.76541   -410.76541 
    5600    293.45402    37.893978    -12338.32   -340.99676   -340.99676 
    5610     296.8939    38.338172   -12338.764   -337.01624   -337.01624 
    5620    330.30708    42.652845    -12343.09   -461.62281   -461.62281 
    5630    288.77388    37.289627   -12337.719   -409.62492   -409.62492 
    5640    248.45778    32.083573   -12332.503   -344.99517   -344.99517 
    5650    297.09071    38.363586   -12338.797   -488.53441   -488.53441 
    5660    309.49374      39.9652     -12340.4   -504.19951   -504.19951 
    5670    267.99748    34.606752   -12335.027    -347.8832    -347.8832 
    5680    308.36515    39.819465   -12340.248   -409.62152   -409.62152 
    5690    349.08991     45.07829   -12345.518   -476.80075   -476.80075 
    5700    287.71097    37.152373   -12337.577   -256.60812   -256.60812 
    5710    271.62344    35.074975   -12335.496   -159.66721   -159.66721 
    5720    333.92576    43.120129   -12343.557   -307.58478   -307.58478 
    5730    322.92271    41.699296   -12342.131    -291.5163    -291.5163 
    5740    283.60233     36.62182   -12337.043   -245.98925   -245.98925 
    5750    311.80372     40.26349   -12340.697    -461.3534    -461.3534 
    5760    301.86065    38.979533   -12339.414   -585.96497   -585.96497 
    5770    243.74965    31.475609   -12331.896   -473.02681   -473.02681 
    5780    268.15409    34.626975   -12335.053   -453.01279   -453.01279 
    5790    323.62166    41.789551   -12342.226   -446.53583   -446.53583 
    5800    312.04072    40.294094   -12340.722   -259.52583   -259.52583 
    5810    311.79649    40.262556   -12340.688   -179.96565   -179.96565 
    5820    342.55915    44.234967    -12344.67   -298.99206   -298.99206 
    5830    313.68986     40.50705   -12340.938   -332.29525   -332.29525 
    5840    269.24502    34.767848   -12335.191   -338.82335   -338.82335 
    5850    284.20775    36.699998    -12337.13   -480.54303   -480.54303 
    5860    296.11884    38.238088    -12338.67   -513.29232   -513.29232 
    5870    283.07497    36.553722   -12336.979   -357.70884   -357.70884 
    5880    304.14174    39.274092   -12339.703   -296.27879   -296.27879 
    5890    330.83272    42.720721   -12343.155   -340.53966   -340.53966 
    5900    312.10476    40.302364   -12340.732    -330.2664    -330.2664 
    5910    289.08846    37.330249   -12337.758    -357.8264    -357.8264 
    5920    284.16918    36.695018   -12337.125   -441.23808   -441.23808 
    5930    274.89906    35.497959   -12335.925   -423.05022   -423.05022 
    5940    289.00708     37.31974   -12337.747   -381.62815   -381.62815 
    5950    321.94922    41.573587   -12342.007   -402.89889   -402.89889 
    5960    314.88896     40.66189   -12341.093   -347.60142   -347.60142 
    5970    293.06923    37.844289   -12338.269   -256.20884   -256.20884 
    5980    314.72731    40.641015   -12341.071   -321.59406   -321.59406 
    5990    325.37262    42.015654   -12342.451   -415.94786   -415.94786 
    6000    277.29493     35.80734   -12336.234   -367.48187   -367.48187 
    6010    258.03626    33.320451   -12333.744   -372.29869   -372.29869 
    6020    298.15051    38.500439   -12338.933   -483.34185   -483.34185 
    6030    306.28999    39.551498   -12339.984   -449.67472   -449.67472 
    6040     287.5367    37.129869   -12337.554   -344.63976   -344.63976 
    6050     311.7437    40.255739   -12340.687    -394.1969    -394.1969 
    6060    320.24368    41.353349   -12341.787   -388.51671   -388.51671 
    6070    283.90275    36.660614   -12337.085    -241.8679    -241.8679 
    6080    293.67725    37.922803   -12338.348     -256.205     -256.205 
    6090    339.13931    43.793359    -12344.23   -407.94297   -407.94297 
    6100    316.61066    40.884214   -12341.316   -388.66839   -388.66839 
    6110    271.98337    35.121453   -12335.544    -316.7132    -316.7132 
    6120    288.76192    37.288082   -12337.718   -381.07239   -381.07239 
    6130    306.08193     39.52463   -12339.957   -386.73639   -386.73639 
    6140    294.99075    38.092417   -12338.519   -310.73561   -310.73561 
    6150    301.35798    38.914622   -12339.343   -321.26476   -321.26476 
    6160    311.09679    40.172204   -12340.604   -361.89877   -361.89877 
    6170    302.31347    39.038005   -12339.466   -377.23309   -377.23309 
    6180    303.74385    39.222712   -12339.653   -459.07279   -459.07279 
    6190    296.12225    38.238528    -12338.67   -508.16636   -508.16636 
    6200    273.02664    35.256172   -12335.682   -452.49111   -452.49111 
    6210    283.63434    36.625953   -12337.054   -426.70758   -426.70758 
    6220     301.5556    38.940142   -12339.372   -368.86259   -368.86259 
    6230    296.67937    38.310469   -12338.736   -219.77579   -219.77579 
    6240     323.2655     41.74356   -12342.172   -223.73215   -223.73215 
    6250    348.41587    44.991249   -12345.428   -369.91894   -369.91894 
    6260     296.5502     38.29379   -12338.722   -391.02278   -391.02278 
    6270    251.62313    32.492317   -12332.913   -388.53413   -388.53413 
    6280    284.32849    36.715589   -12337.147   -517.11355   -517.11355 
    6290    298.18422    38.504792   -12338.938   -536.20999   -536.20999 
    6300    277.57479    35.843478   -12336.267    -389.7859    -389.7859 
    6310    306.17693    39.536898   -12339.967   -319.90042   -319.90042 
    6320    331.90875     42.85967   -12343.294   -274.62966   -274.62966 
    6330    312.70833    40.380303   -12340.806   -207.90512   -207.90512 
    6340    316.59128    40.881713   -12341.311   -295.12836   -295.12836 
    6350    318.41456    41.117154   -12341.552    -423.1395    -423.1395 
    6360    274.29474    35.419922   -12335.845   -388.25698   -388.25698 
    6370    272.12927    35.140293   -12335.565    -375.5751    -375.5751 
    6380    312.92179    40.407868   -12340.843    -447.0158    -447.0158 
    6390    303.00589    39.127419   -12339.558   -412.86767   -412.86767 
    6400    282.17121    36.437018   -12336.861   -362.49072   -362.49072 
    6410     305.3932    39.435694   -12339.867   -417.68036   -417.68036 
    6420    309.65063     39.98546   -12340.417   -410.08661   -410.08661 
    6430    289.12666    37.335181   -12337.761   -321.81411   -321.81411 
    6440    300.39509    38.790283    -12339.22    -327.0554    -327.0554 
    6450     309.9564    40.024944   -12340.457   -360.78266   -360.78266 
    6460    297.60501    38.429998   -12338.857   -349.32496   -349.32496 
    6470    299.59736    38.687272   -12339.117   -392.87023   -392.87023 
    6480     297.0941    38.364025   -12338.795   -460.46199   -460.46199 
    6490    280.17718    36.179528   -12336.606   -457.70954   -457.70954 
    6500    290.11249    37.462483   -12337.891   -403.73738   -403.73738 
    6510    311.54201    40.229695   -12340.661   -297.12974   -297.12974 
    6520    311.89074    40.274727   -12340.702   -172.40088   -172.40088 
    6530     324.5557    41.910164   -12342.339    -188.7926    -188.7926 
    6540    336.52534    43.455815    -12343.89   -330.45744   -330.45744 
    6550    296.58722     38.29857   -12338.728   -417.40849   -417.40849 
    6560    257.54529    33.257051   -12333.681   -475.33617   -475.33617 
    6570    273.97276    35.378346   -12335.807   -566.91225   -566.91225 
    6580    295.70988    38.185278   -12338.619   -580.73739   -580.73739 
    6590    278.61992    35.978437   -12336.406   -444.16508   -444.16508 
    6600    277.44616    35.826868   -12336.251   -309.13145   -309.13145 
    6610    323.80059    41.812656   -12342.244   -291.81013   -291.81013 
    6620    346.99128    44.807291   -12345.243   -298.50603   -298.50603 
    6630    307.12351    39.659131   -12340.088   -257.92952   -257.92952 
    6640    275.85399    35.621269   -12336.044   -258.88579   -258.88579 
    6650    305.38366    39.434462   -12339.865    -355.2106    -355.2106 
    6660    326.35774    42.142863   -12342.577   -410.63753   -410.63753 
    6670    295.22842    38.123107   -12338.551   -362.38247   -362.38247 
    6680    279.00361    36.027982   -12336.453   -368.33701   -368.33701 
    6690    299.77818    38.710622   -12339.143   -464.28341   -464.28341 
    6700    295.26173    38.127409   -12338.558    -462.4732    -462.4732 
    6710    279.61362    36.106755   -12336.532   -376.25232   -376.25232 
    6720    302.30688    39.037155   -12339.467   -376.65214   -376.65214 
    6730    321.19542    41.476249    -12341.91   -407.23497   -407.23497 
    6740    300.39723     38.79056   -12339.218   -342.09731   -342.09731 
    6750    291.78342    37.678252   -12338.105   -295.68257   -295.68257 
    6760    309.13011    39.918245   -12340.349   -341.42439   -341.42439 
    6770    308.72808     39.86633   -12340.297   -362.63919   -362.63919 
    6780    294.16146     37.98533   -12338.413   -335.23969   -335.23969 
    6790    294.09675    37.976974   -12338.406   -337.68358   -337.68358 
    6800    297.31889    38.393051   -12338.823   -345.69484   -345.69484 
    6810    298.73803    38.576306   -12339.004   -341.10232   -341.10232 
    6820    311.70834    40.251174   -12340.682   -393.61939   -393.61939 
    6830    312.18504     40.31273   -12340.744    -456.6919    -456.6919 
    6840    289.22959    37.348473   -12337.777   -454.64147   -454.64147 
    6850    275.00092    35.511113   -12335.938   -433.93391   -433.93391 
    6860    285.87521    36.915319   -12337.345   -446.80934   -446.80934 
    6870    292.05901    37.713838   -12338.144   -411.84208   -411.84208 
    6880    288.78863    37.291532   -12337.719   -322.83264   -322.83264 
    6890    304.72853    39.349865   -12339.778   -295.86526   -295.86526 
    6900    329.56501    42.557022   -12342.989   -311.85374   -311.85374 
    6910    328.66515    42.440822   -12342.872   -283.31907   -283.31907 
    6920    310.32183    40.072133     -12340.5   -275.11259   -275.11259 
    6930    301.95952      38.9923   -12339.422   -350.00032   -350.00032 
    6940    291.06777    37.585838   -12338.015   -398.02118   -398.02118 
    6950    277.96602    35.893998   -12336.321   -405.12924   -405.12924 
    6960    285.70789    36.893713   -12337.322   -461.54264   -461.54264 
    6970    301.43879    38.925058   -12339.357   -508.66116   -508.66116 
    6980    295.31512    38.134303   -12338.564   -446.22743   -446.22743 
    6990    289.34527     37.36341    -12337.79   -371.88602   -371.88602 
    7000    305.42191    39.439402    -12339.87   -361.27592   -361.27592 
    7010    309.01185    39.902974   -12340.334    -310.0887    -310.0887 
    7020    296.48861    38.285837   -12338.713   -246.65526   -246.65526 
    7030    306.31148    39.554272   -12339.983    -307.7015    -307.7015 
    7040    317.00535    40.935181   -12341.368    -409.0554    -409.0554 
    7050    293.32975    37.877931   -12338.306   -407.86569   -407.86569 
    7060    282.87612    36.528044   -12336.954   -394.96472   -394.96472 
    7070    306.50826    39.579682   -12340.011   -409.46298   -409.46298 
    7080    315.05959    40.683924   -12341.115   -359.38212   -359.38212 
    7090    302.19245    39.022378    -12339.45   -292.48731   -292.48731 
    7100    304.79425    39.358351   -12339.788   -322.77862   -322.77862 
    7110    299.67732    38.697597   -12339.128    -353.6836    -353.6836 
    7120    281.78185    36.386739   -12336.813   -348.47739   -348.47739 
    7130    293.63908    37.917875   -12338.347   -410.71148   -410.71148 
    7140    308.68185     39.86036   -12340.293   -461.73477   -461.73477 
    7150    289.74688    37.415272   -12337.844   -412.71031   -412.71031 
    7160    277.25207    35.801805   -12336.228   -378.42782   -378.42782 
    7170    298.37867    38.529901    -12338.96   -416.12959   -416.12959 
    7180    313.31522    40.458672   -12340.889   -410.16185   -410.16185 
    7190    311.51471     40.22617   -12340.656   -358.27082   -358.27082 
    7200    304.03696    39.260562    -12339.69   -312.89218   -312.89218 
    7210    295.62855    38.174776   -12338.602    -274.7555    -274.7555 
    7220    304.85443    39.366123   -12339.795    -286.6329    -286.6329 
    7230    316.39191    40.855967   -12341.289   -362.34203   -362.34203 
    7240    292.92919    37.826206   -12338.256   -435.98992   -435.98992 
    7250    268.74051      34.7027   -12335.128   -499.01824   -499.01824 
    7260    284.27642    36.708866   -12337.139   -537.59216   -537.59216 
    7270    296.41959    38.276925   -12338.707   -442.50301   -442.50301 
    7280    299.52092    38.677402   -12339.104   -278.14457   -278.14457 
    7290    325.21668    41.995517   -12342.426   -208.02975   -208.02975 
    7300    337.62381    43.597662    -12344.03   -212.67269   -212.67269 
    7310    316.56549    40.878382   -12341.307   -245.72275   -245.72275 
    7320    299.21997    38.638539   -12339.067   -340.63099   -340.63099 
    7330    287.23292    37.090641   -12337.521   -452.78952   -452.78952 
    7340    270.78069     34.96615   -12335.393   -510.89269   -510.89269 
    7350    276.62474    35.720797   -12336.148   -499.43483   -499.43483 
    7360    299.21462    38.637849   -12339.068   -407.73471   -407.73471 
    7370    310.24861    40.062678   -12340.492   -306.14247   -306.14247 
    7380    318.55228    41.134938   -12341.566   -314.85755   -314.85755 
    7390    309.32627    39.943574   -12340.375   -357.73071   -357.73071 
    7400    279.75127    36.124529    -12336.55   -352.75416   -352.75416 
    7410    288.45159    37.248009   -12337.675   -395.52847   -395.52847 
    7420    318.14721    41.082631   -12341.517    -442.6478    -442.6478 
    7430    300.80809    38.843614   -12339.273   -388.22091   -388.22091 
    7440    281.40673      36.3383   -12336.763   -373.91707   -373.91707 
    7450    301.36644    38.915714   -12339.347   -439.65705   -439.65705 
    7460    299.42349     38.66482   -12339.096   -391.59803   -391.59803 
    7470    283.46954    36.604672    -12337.03   -308.80353   -308.80353 
    7480    305.49109    39.448335   -12339.878    -353.6501    -353.6501 
    7490    320.45003    41.379996   -12341.813   -372.02595   -372.02595 
    7500    301.70691     38.95968   -12339.386   -296.66958   -296.66958 
    7510    304.21388    39.283408   -12339.712   -310.55729   -310.55729 
    7520    310.85749    40.141302   -12340.574   -379.47169   -379.47169 
    7530    283.24087    36.575144   -12337.002   -393.49803   -393.49803 
    7540    273.84453    35.361786   -12335.788    -442.6076    -442.6076 
    7550    297.18945    38.376337   -12338.807   -475.74196   -475.74196 
    7560    310.67273    40.117445   -12340.548   -378.96053   -378.96053 
    7570    313.21517    40.445752   -12340.875   -278.02404   -278.02404 
    7580    313.83543    40.525847   -12340.956   -279.73317   -279.73317 
    7590    303.04048    39.131886    -12339.56   -284.51658   -284.51658 
    7600     304.5432    39.325933   -12339.754   -300.69363   -300.69363 
    7610    312.13522    40.306297   -12340.739   -368.88621   -368.88621 
    7620     287.5199      37.1277   -12337.556   -409.92029   -409.92029 
    7630    268.81585    34.712429   -12335.138    -456.5557    -456.5557 
    7640    289.36983    37.366582   -12337.797   -530.24284   -530.24284 
    7650    303.45355    39.185226   -12339.617   -495.82551   -495.82551 
    7660    295.45244    38.152036   -12338.579   -348.86561   -348.86561 
    7670    305.22309    39.413727   -12339.843   -290.81612   -290.81612 
    7680    312.61799    40.368637   -12340.801   -313.29542   -313.29542 
    7690    293.55955    37.907604   -12338.334   -268.86081   -268.86081 
    7700    300.69732     38.82931   -12339.256   -251.45524   -251.45524 
    7710    332.40839    42.924189   -12343.358   -342.98248   -342.98248 
    7720     320.8431    41.430754   -12341.863   -411.92853   -411.92853 
    7730    273.92803    35.372569   -12335.798   -398.50915   -398.50915 
    7740    264.80079     34.19396   -12334.619   -411.99275   -411.99275 
    7750    299.08368     38.62094   -12339.053    -470.5289    -470.5289 
    7760    305.37342     39.43314   -12339.865   -446.69878   -446.69878 
    7770    282.70963    36.506545   -12336.933   -380.65604   -380.65604 
    7780    288.87937    37.303249   -12337.731   -396.69805   -396.69805 
    7790    308.84663    39.881638   -12340.313   -413.52888   -413.52888 
    7800    305.03468    39.389398   -12339.818   -343.96209   -343.96209 
    7810    305.62629    39.465794   -12339.893   -299.77734   -299.77734 
    7820    318.00365    41.064093   -12341.497    -319.8071    -319.8071 
    7830    299.10859    38.624157   -12339.053   -284.17503   -284.17503 
    7840    286.81864    37.037145   -12337.461   -257.90605   -257.90605 
    7850    323.41136    41.762395   -12342.195   -334.01904   -334.01904 
    7860    328.82965    42.462064   -12342.897   -355.66056   -355.66056 
    7870    281.48846    36.348853   -12336.773   -317.48767   -317.48767 
    7880    278.42085     35.95273   -12336.379   -421.70745   -421.70745 
    7890    304.05448    39.262824   -12339.697   -533.29404   -533.29404 
    7900    282.72559    36.508606   -12336.936   -437.29428   -437.29428 
    7910    275.32741    35.553273   -12335.977   -332.28166   -332.28166 
    7920    318.94312    41.185408   -12341.619   -358.29301   -358.29301 
    7930     327.2126    42.253252   -12342.686   -326.91769   -326.91769 
    7940    302.44906    39.055514   -12339.481   -269.37423   -269.37423 
    7950    304.80089    39.359209    -12339.79   -348.95343   -348.95343 
    7960    297.01705    38.354075   -12338.785   -444.35967   -444.35967 
    7970    272.77457    35.223622    -12335.65   -470.42994   -470.42994 
    7980    279.63852     36.10997   -12336.539   -480.43372   -480.43372 
    7990    296.45685    38.281736   -12338.712   -419.56191   -419.56191 
    8000    308.28115    39.808618   -12340.236   -307.61906   -307.61906 
    8010    332.26794    42.906053   -12343.338   -283.11691   -283.11691 
    8020    321.39837    41.502456   -12341.936    -297.9072    -297.9072 
    8030    274.97908    35.508292   -12335.932   -312.55154   -312.55154 
    8040    277.32881    35.811714   -12336.238   -431.39462   -431.39462 
    8050    304.55934    39.328017   -12339.762   -540.38753   -540.38753 
    8060    286.43044    36.987016   -12337.415   -473.87633   -473.87633 
    8070    281.55117    36.356952   -12336.782   -378.66291   -378.66291 
    8080    317.89851    41.050516   -12341.483   -350.14717   -350.14717 
    8090    322.92943    41.700163   -12342.132   -276.60518   -276.60518 
    8100    303.05627    39.133924   -12339.561   -207.76373   -207.76373 
    8110    305.13653     39.40255   -12339.832   -260.26545   -260.26545 
    8120     306.3803     39.56316   -12339.993   -366.60978   -366.60978 
    8130    299.46076    38.669633   -12339.098   -442.85126   -442.85126 
    8140    296.77822    38.323234   -12338.753   -453.44369   -453.44369 
    8150    287.10773    37.074476   -12337.502    -405.7813    -405.7813 
    8160     292.6312    37.787726   -12338.215   -407.84218   -407.84218 
    8170    310.98649    40.157961   -12340.591   -424.42392   -424.42392 
    8180    295.90268    38.210175   -12338.639   -326.90779   -326.90779 
    8190    287.61155    37.139534   -12337.564    -273.9823    -273.9823 
    8200    317.65501    41.019072   -12341.452   -375.47562   -375.47562 
    8210    308.59599    39.849273   -12340.281   -409.37248   -409.37248 
    8220    275.77931    35.611627   -12336.034   -380.96473   -380.96473 
    8230    300.60106    38.816881   -12339.247   -472.80521   -472.80521 
    8240    312.21293    40.316332   -12340.752   -504.06924   -504.06924 
    8250    268.49544    34.671053   -12335.095   -370.03027   -370.03027 
    8260    276.01022    35.641444   -12336.066   -320.30898   -320.30898 
    8270    325.40285    42.019558   -12342.455   -337.06479   -337.06479 
    8280    322.86708    41.692111   -12342.122   -253.30469   -253.30469 
    8290    313.81493    40.523199    -12340.95   -241.89536   -241.89536 
    8300    323.91404    41.827306   -12342.261   -346.49707   -346.49707 
    8310    294.68366    38.052762   -12338.481   -366.29231   -366.29231 
    8320    274.03915    35.386918   -12335.811   -386.72413   -386.72413 
    8330    299.14244    38.628528   -12339.062   -488.14468   -488.14468 
    8340    290.26586    37.482288   -12337.913   -469.70527   -469.70527 
    8350    267.56637    34.551082   -12334.975   -396.25884   -396.25884 
    8360    296.49537    38.286709   -12338.718   -447.94727   -447.94727 
    8370    313.00257    40.418299   -12340.851   -439.68632   -439.68632 
    8380    300.75647     38.83695   -12339.263   -323.29241   -323.29241 
    8390    315.32282    40.717915   -12341.148   -300.61494   -300.61494 
    8400    319.83427    41.300482   -12341.734   -315.68563   -315.68563 
    8410    290.20765     37.47477     -12337.9   -263.70036   -263.70036 
    8420    294.97029    38.089774   -12338.518   -297.78213   -297.78213 
    8430    312.85705    40.399508   -12340.833   -382.95465   -382.95465 
    8440    290.90531     37.56486   -12337.992   -367.10955   -367.10955 
    8450    288.88464    37.303929    -12337.73   -386.83397   -386.83397 
    8460    313.45677     40.47695    -12340.91   -473.21235   -473.21235 
    8470    298.76962    38.580386    -12339.01   -426.26307   -426.26307 
    8480    280.42099    36.211011   -12336.636   -314.03875   -314.03875 
    8490    303.62797    39.207748   -12339.638   -317.63411   -317.63411 
    8500    317.04219    40.939939   -12341.372    -344.7746    -344.7746 
    8510    299.52345    38.677728   -12339.105   -310.66547   -310.66547 
    8520    297.49331    38.415574   -12338.844   -346.35858   -346.35858 
    8530    304.79156    39.358004    -12339.79   -447.57716   -447.57716 
    8540    290.81116    37.552702   -12337.982   -461.32745   -461.32745 
    8550    279.16618    36.048976   -12336.476   -408.85101   -408.85101 
    8560    291.03579    37.581709    -12338.01   -389.02243   -389.02243 
    8570    312.20479     40.31528   -12340.746    -377.3562    -377.3562 
    8580    314.99327     40.67536   -12341.106   -310.74767   -310.74767 
    8590    305.81491     39.49015   -12339.918   -271.59209   -271.59209 
    8600    306.90241     39.63058    -12340.06   -334.53178   -334.53178 
    8610    300.57116     38.81302   -12339.244   -392.93694   -392.93694 
    8620    278.44077    35.955303   -12336.382   -388.82142   -388.82142 
    8630     280.8107    36.261335   -12336.689   -417.12621   -417.12621 
    8640    304.11608    39.270778   -12339.702   -442.65815   -442.65815 
    8650    309.20712    39.928189   -12340.358   -390.05652   -390.05652 
    8660     304.7091    39.347356   -12339.777   -353.98518   -353.98518 
    8670    299.24549    38.641835   -12339.072   -359.71203   -359.71203 
    8680    289.84192    37.427544   -12337.855   -338.47743   -338.47743 
    8690    301.10255    38.881639    -12339.31   -336.13506   -336.13506 
    8700    321.83566    41.558923   -12341.992   -362.93396   -362.93396 
    8710    305.82918    39.491992   -12339.921   -330.33145   -330.33145 
    8720    288.47169    37.250605   -12337.676   -324.16576   -324.16576 
    8730    306.94051      39.6355   -12340.067   -407.10931   -407.10931 
    8740    306.83626    39.622038   -12340.054   -418.00336   -418.00336 
    8750    283.17678    36.566868   -12336.993   -368.47064   -368.47064 
    8760    288.29322    37.227559   -12337.657   -416.53291   -416.53291 
    8770    296.52553    38.290604   -12338.722   -449.98601   -449.98601 
    8780    286.75946    37.029503   -12337.456   -360.19529   -360.19529 
    8790    302.29478    39.035593   -12339.464    -309.8697    -309.8697 
    8800    327.41651    42.279584   -12342.713   -348.05783   -348.05783 
    8810     315.4331    40.732155   -12341.162   -358.05005   -358.05005 
    8820    293.81163    37.940156   -12338.368   -360.02005   -360.02005 
    8830    285.16339    36.823401   -12337.253   -368.59753   -368.59753 
    8840    280.93618    36.277538   -12336.705   -333.71521   -333.71521 
    8850    299.55495    38.681796   -12339.111   -334.18594   -334.18594 
    8860    318.21971    41.091993   -12341.525   -384.82713   -384.82713 
    8870    299.22224    38.638833   -12339.067   -368.51771   -368.51771 
    8880    294.53565     38.03365    -12338.46   -333.97601   -333.97601 
    8890    320.69749    41.411951   -12341.845     -356.143     -356.143 
    8900    311.42896    40.215097   -12340.647    -358.2064    -358.2064 
    8910    278.41462    35.951926   -12336.377   -345.74363   -345.74363 
    8920    284.45025    36.731312    -12337.16   -408.67936   -408.67936 
    8930    299.92906    38.730105   -12339.162   -455.52131   -455.52131 
    8940    294.91229    38.082285    -12338.51   -414.89882   -414.89882 
    8950    304.80074    39.359189   -12339.789   -406.58172   -406.58172 
    8960    305.75275    39.482123   -12339.914    -402.2022    -402.2022 
    8970    281.37287    36.333928    -12336.76   -330.12323   -330.12323 
    8980    289.85808    37.429631   -12337.856   -302.94401   -302.94401 
    8990    321.73553    41.545993    -12341.98   -347.10001   -347.10001 
    9000    308.99611    39.900942   -12340.331   -344.20792   -344.20792 
    9010    287.80908    37.165041    -12337.59    -343.2026    -343.2026 
    9020    302.55108    39.068689   -12339.499   -400.23979   -400.23979 
    9030    307.40634    39.695653   -12340.127   -404.11306   -404.11306 
    9040    292.68701    37.794932   -12338.222   -343.18147   -343.18147 
    9050    297.38961    38.402183    -12338.83    -318.8762    -318.8762 
    9060    312.62902    40.370062   -12340.801   -326.83004   -326.83004 
    9070     309.8757    40.014523   -12340.444   -308.15467   -308.15467 
    9080    303.18993    39.151184    -12339.58   -297.01575   -297.01575 
    9090    302.63919    39.080067   -12339.509   -321.27475   -321.27475 
    9100    300.30583    38.778758   -12339.209   -374.74531   -374.74531 
    9110    290.08545    37.458991   -12337.888   -440.05649   -440.05649 
    9120     281.3779    36.334578   -12336.763   -488.86755   -488.86755 
    9130    285.79979     36.90558   -12337.334   -477.68892   -477.68892 
    9140    298.61365    38.560245    -12338.99   -402.61722   -402.61722 
    9150    306.14476    39.532744   -12339.962   -311.36848   -311.36848 
    9160    310.02679    40.034034   -12340.463   -268.15783   -268.15783 
    9170    318.32824    41.106007   -12341.537    -309.7599    -309.7599 
    9180    310.57255    40.104508   -12340.536     -382.346     -382.346 
    9190    280.05579    36.163852   -12336.591   -432.30948   -432.30948 
    9200    266.29694    34.387159   -12334.814   -480.83237   -480.83237 
    9210    283.26607    36.578398   -12337.008    -497.9927    -497.9927 
    9220    303.51201    39.192774   -12339.622   -409.51561   -409.51561 
    9230    319.81186    41.297588   -12341.727   -276.21444   -276.21444 
    9240    332.23814    42.902205   -12343.334   -215.36971   -215.36971 
    9250    320.91642    41.440222   -12341.871   -230.54542   -230.54542 
    9260    296.27087     38.25772   -12338.685   -307.93653   -307.93653 
    9270    286.93863     37.05264   -12337.482   -449.61246   -449.61246 
    9280    279.22566    36.056656   -12336.486   -547.21564   -547.21564 
    9290    269.81198     34.84106   -12335.268   -534.15578   -534.15578 
    9300    284.51425    36.739577   -12337.168   -474.57055   -474.57055 
    9310    310.83263    40.138092    -12340.57   -385.77468   -385.77468 
    9320    316.01654    40.807495   -12341.237    -246.0371    -246.0371 
    9330    319.62654    41.273658   -12341.702   -163.99873   -163.99873 
    9340    328.24499    42.386566   -12342.818   -190.34067   -190.34067 
    9350    311.01196    40.161249   -12340.591   -235.28892   -235.28892 
    9360    289.82514    37.425377   -12337.851   -319.86002   -319.86002 
    9370    298.46659    38.541255   -12338.972   -489.76651   -489.76651 
    9380    295.04466    38.099378   -12338.531   -584.12347   -584.12347 
    9390     265.6925    34.309107   -12334.735   -519.94604   -519.94604 
    9400    271.73654     35.08958   -12335.516   -457.75736   -457.75736 
    9410    304.72159    39.348968   -12339.782   -421.84283   -421.84283 
    9420    306.44863    39.571983   -12340.001   -303.07667   -303.07667 
    9430    306.87024    39.626425   -12340.053   -231.58335   -231.58335 
    9440    327.74198    42.321611   -12342.755   -308.21357   -308.21357 
    9450    310.11043    40.044835   -12340.476   -348.30732   -348.30732 
    9460    274.83844    35.490131   -12335.914   -326.27126   -326.27126 
    9470     295.2971    38.131975   -12338.561   -395.48867   -395.48867 
    9480    321.77124    41.550605   -12341.986   -435.25823   -435.25823 
    9490    293.25085    37.867742   -12338.295   -313.16716   -313.16716 
    9500    281.38848    36.335944    -12336.76   -269.73962   -269.73962 
    9510    313.84163    40.526648    -12340.96   -410.01373   -410.01373 
    9520    309.14176    39.919749   -12340.352   -481.16782   -481.16782 
    9530    275.57909    35.585772   -12336.011   -442.49402   -442.49402 
    9540    283.22893    36.573602   -12337.002   -449.69066   -449.69066 
    9550    304.16723    39.277384    -12339.71   -432.93114   -432.93114 
    9560     295.8512    38.203527   -12338.631   -311.68813   -311.68813 
    9570     299.0995    38.622983    -12339.05   -241.48195   -241.48195 
    9580    322.25272    41.612779   -12342.045   -275.81471   -275.81471 
    9590    318.21484    41.091364   -12341.522   -310.52393   -310.52393 
    9600    294.04281    37.970008   -12338.397   -357.91889   -357.91889 
    9610    289.43072    37.374445   -12337.802    -438.2077    -438.2077 
    9620    301.73429    38.963216   -12339.393   -458.23028   -458.23028 
    9630    305.61778    39.464695   -12339.895   -393.82642   -393.82642 
    9640    298.91642    38.599342   -12339.028   -327.42227   -327.42227 
    9650    295.14531    38.112375   -12338.541   -289.10648   -289.10648 
    9660    301.05651    38.875693   -12339.304   -278.31709   -278.31709 
    9670    311.06437    40.168018   -12340.598   -320.48579   -320.48579 
    9680     311.6775    40.247192   -12340.677   -375.13803   -375.13803 
    9690    301.92001    38.987198   -12339.417   -403.05147   -403.05147 
    9700     288.2905    37.227208   -12337.656   -436.59847   -436.59847 
    9710    279.28429    36.064227   -12336.492   -480.68235   -480.68235 
    9720    281.07243    36.295132   -12336.724   -477.84808   -477.84808 
    9730    288.37626    37.238282   -12337.667   -426.70346   -426.70346 
    9740    302.91387    39.115536   -12339.545   -407.15474   -407.15474 
    9750    310.45472    40.089292   -12340.521   -376.86319   -376.86319 
    9760    298.28009    38.517172   -12338.945   -281.51908   -281.51908 
    9770    299.45643    38.669073   -12339.096   -247.49611   -247.49611 
    9780    325.13693     41.98522   -12342.418   -320.42367   -320.42367 
    9790    318.29103    41.101202   -12341.533   -337.00939   -337.00939 
    9800    284.70588    36.764322   -12337.189   -331.76175   -331.76175 
    9810    289.00889    37.319973   -12337.748   -442.55069   -442.55069 
    9820    302.99825    39.126433    -12339.56   -506.95231   -506.95231 
    9830    281.04823    36.292007   -12336.719   -400.11818   -400.11818 
    9840    283.86856    36.656198   -12337.082   -341.34773   -341.34773 
    9850      318.632    41.145233   -12341.579   -375.79229   -375.79229 
    9860     311.3458    40.204358   -12340.634   -321.65089   -321.65089 
    9870    295.23924    38.124504    -12338.55    -279.8769    -279.8769 
    9880    314.44688    40.604803   -12341.036   -343.90077   -343.90077 
    9890    312.57154     40.36264   -12340.795   -356.00464   -356.00464 
    9900    283.38986    36.594384   -12337.019    -321.2604    -321.2604 
    9910     298.0954    38.493323   -12338.922   -410.92417   -410.92417 
    9920    316.21725    40.833413   -12341.268   -467.27474   -467.27474 
    9930    285.16532     36.82365    -12337.25   -362.54332   -362.54332 
    9940    279.62095    36.107701   -12336.533   -349.71511   -349.71511 
    9950    307.52698    39.711231   -12340.144   -442.87179   -442.87179 
    9960    300.35565    38.785191   -12339.215   -399.93594   -399.93594 
    9970    291.88658    37.691572   -12338.117   -303.23196   -303.23196 
    9980    317.45875    40.993729   -12341.426   -307.52066   -307.52066 
    9990    313.16179     40.43886    -12340.87   -299.33439   -299.33439 
   10000    286.14252    36.949837   -12337.375   -316.82665   -316.82665 
Loop time of 11.0511 on 1 procs for 10000 steps with 1000 atoms

Performance: 39.091 ns/day, 0.614 hours/ns, 904.888 timesteps/s
99.8% CPU use with 1 MPI tasks x no OpenMP threads

MPI task timing breakdown:
Section |  min time  |  avg time  |  max time  |%varavg| %total
---------------------------------------------------------------
Pair    | 8.9841     | 8.9841     | 8.9841     |   0.0 | 81.30
Neigh   | 1.3339     | 1.3339     | 1.3339     |   0.0 | 12.07
Comm    | 0.085545   | 0.085545   | 0.085545   |   0.0 |  0.77
Output  | 0.56935    | 0.56935    | 0.56935    |   0.0 |  5.15
Modify  | 0.05785    | 0.05785    | 0.05785    |   0.0 |  0.52
Other   |            | 0.02038    |            |       |  0.18

Nlocal:    1000 ave 1000 max 1000 min
Histogram: 1 0 0 0 0 0 0 0 0 0
Nghost:    2045 ave 2045 max 2045 min
Histogram: 1 0 0 0 0 0 0 0 0 0
Neighs:    0 ave 0 max 0 min
Histogram: 1 0 0 0 0 0 0 0 0 0
FullNghs:  33674 ave 33674 max 33674 min
Histogram: 1 0 0 0 0 0 0 0 0 0

Total # of neighbors = 33674
Ave neighs/atom = 33.674
Neighbor list builds = 1000
Dangerous builds not checked

Total wall time: 0:00:11
