
# Define the lattice
variable	lattice_constant equal 6.2030
lattice		diamond ${lattice_constant}
lattice		diamond 6.203
Lattice spacing in x,y,z = 6.203 6.203 6.203

# Define region
# multiples of lattice spacing
region 		simbox block 0 5 0 5 0 5

# Create Atoms
create_box 	1 simbox
Created orthogonal box = (0 0 0) to (31.015 31.015 31.015)
  1 by 1 by 1 MPI processor grid
create_atoms 	1 box
Created 1000 atoms
  Time spent = 0.000974894 secs
mass		1 18.015

velocity	all create 600.0 97287

# Define Interatomic Potential
pair_style	sw
pair_coeff	* * mW.sw mW
Reading potential file mW.sw with DATE: 2019-02-27

neighbor 	2.0 bin
neigh_modify	delay 10 check no

# Pressure computations
compute		total_press all pressure thermo_temp
compute		peratom all stress/atom NULL
compute		p all reduce sum c_peratom[1] c_peratom[2] c_peratom[3]
variable	press equal -(c_p[1]+c_p[2]+c_p[3])/(3*vol)

# Density computations
variable	total_mass equal mass(all)
variable	v equal vol
print 		${total_mass}
print 		18014.9999999997
18014.9999999997
print		$v
print		29834.265928375
29834.265928375

variable 	density equal v_total_mass/(v_v*18.015)
print 		${density}
print 		0.0335185052784857
0.0335185052784857


# Run equilibration
thermo_style	custom step temp ke pe c_total_press v_press
thermo		10
dump		1 all atom 10 ${simname}.dump
dump		1 all atom 10 mW_liquid_6.2030.dump

fix 		1 all nve
#temp 300.0 300.0 100.0 iso 0.0 0.0 1000.0
timestep	0.0005
run		10000
Neighbor list info ...
  update every 1 steps, delay 10 steps, check no
  max neighbors/atom: 2000, page size: 100000
  master list distance cutoff = 6.3065
  ghost atom cutoff = 6.3065
  binsize = 3.15325, bins = 10 10 10
  1 neighbor lists, perpetual/occasional/extra = 1 0 0
  (1) pair sw, perpetual
      attributes: full, newton on
      pair build: full/bin/atomonly
      stencil: full/bin/3d
      bin: standard
Per MPI rank memory allocation (min/avg/max) = 4.438 | 4.438 | 4.438 Mbytes
Step Temp KinEng PotEng c_total_press v_press 
       0          600    77.478531   -12377.995    1716.4638    1716.4638 
      10     357.0985    46.112445   -12346.569     2091.614     2091.614 
      20    173.49232    22.403217   -12322.832    1984.3712    1984.3712 
      30    324.82215    41.944571   -12342.434    1048.7636    1048.7636 
      40    270.67657    34.952705   -12335.426    946.32635    946.32635 
      50    140.11349    18.092979   -12318.526    1330.8436    1330.8436 
      60    298.80472    38.584917   -12339.061    1116.5902    1116.5902 
      70    362.02926    46.749158   -12347.234    1247.6062    1247.6062 
      80    248.39729    32.075762   -12332.517    1866.3989    1866.3989 
      90    340.87206    44.017111   -12344.485    1781.7349    1781.7349 
     100    408.71127    52.777248   -12353.267    1506.4441    1506.4441 
     110    252.79225    32.643287   -12333.091    1703.8265    1703.8265 
     120    247.15784    31.915711   -12332.369    1545.5582    1545.5582 
     130    351.09641     45.33739   -12345.823    1198.0219    1198.0219 
     140    275.69792    35.601116    -12336.06    1452.4964    1452.4964 
     150    248.44698    32.082178   -12332.533    1605.0554    1605.0554 
     160    347.49019    44.871716   -12345.353    1322.2479    1322.2479 
     170    303.68891    39.215618   -12339.683    1432.7339    1432.7339 
     180      240.227    31.020725   -12331.468    1709.5695    1709.5695 
     190    335.16087     43.27962   -12343.753    1514.5851    1514.5851 
     200    355.00893    45.842618   -12346.319    1407.3491    1407.3491 
     210    261.81466    33.808358   -12334.261    1623.0154    1623.0154 
     220    278.57368    35.972465   -12336.434    1558.9248    1558.9248 
     230    330.04345    42.618802   -12343.094     1371.248     1371.248 
     240    287.78651    37.162127   -12337.623    1487.9722    1487.9722 
     250    277.80964    35.873805   -12336.333    1546.3228    1546.3228 
     260    317.25313    40.967178   -12341.439    1419.8605    1419.8605 
     270    296.21115    38.250007   -12338.714    1500.8928    1500.8928 
     280    283.43134     36.59974   -12337.058    1632.9241    1632.9241 
     290    333.87126    43.113092   -12343.583    1523.8424    1523.8424 
     300    333.47526    43.061955   -12343.533    1480.0592    1480.0592 
     310    277.58499    35.844795   -12336.304    1615.4866    1615.4866 
     320    281.29534    36.323917   -12336.786    1598.5689    1598.5689 
     330    318.01986    41.066186   -12341.537    1455.4966    1455.4966 
     340    298.42291    38.535615   -12339.001    1442.6894    1442.6894 
     350    270.63856    34.947796   -12335.408    1429.1375    1429.1375 
     360    288.02918    37.193462    -12337.66    1308.6013    1308.6013 
     370     298.0499    38.487448   -12338.955    1318.1685    1318.1685 
     380    286.31363    36.971933   -12337.434     1475.727     1475.727 
     390    298.45552    38.539825   -12339.004    1558.2123    1558.2123 
     400    322.99795    41.709011   -12342.176    1607.0092    1607.0092 
     410    326.37245    42.144763    -12342.61    1721.1928    1721.1928 
     420    324.81509     41.94366   -12342.409     1733.088     1733.088 
     430    316.24472    40.836961   -12341.304    1596.6793    1596.6793 
     440    290.57969    37.522812   -12337.987    1464.3256    1464.3256 
     450    272.39891    35.175113   -12335.639    1369.0222    1369.0222 
     460    268.47433    34.668328   -12335.133    1308.5776    1308.5776 
     470    271.83597    35.102419   -12335.565    1339.0285    1339.0285 
     480    296.36828    38.270298   -12338.736      1404.34      1404.34 
     490    315.16157    40.697093   -12341.166    1474.3863    1474.3863 
     500    301.45565    38.927234    -12339.39    1604.3661    1604.3661 
     510    306.81021    39.618674   -12340.081    1691.4516    1691.4516 
     520    332.04148     42.87681   -12343.346    1643.2007    1643.2007 
     530    314.49899    40.611533   -12341.078    1563.0095    1563.0095 
     540    278.22548    35.927502   -12336.389    1514.5037    1514.5037 
     550    280.87056    36.269064   -12336.733    1457.8827    1457.8827 
     560    300.35328    38.784884   -12339.251     1421.325     1421.325 
     570    305.60465    39.462998   -12339.928    1440.5349    1440.5349 
     580     304.1391    39.273751   -12339.739    1473.5442    1473.5442 
     590    298.92832    38.600878   -12339.066    1491.5699    1491.5699 
     600    294.55488    38.036132     -12338.5    1521.5446    1521.5446 
     610    301.74485    38.964579    -12339.43    1577.5807    1577.5807 
     620    309.47206    39.962401   -12340.428    1613.6116    1613.6116 
     630    311.43545    40.215936   -12340.681       1573.8       1573.8 
     640    311.16124    40.180527   -12340.647    1502.5563    1502.5563 
     650    293.99672    37.964057   -12338.429    1493.3349    1493.3349 
     660    280.05442    36.163675   -12336.625    1485.3145    1485.3145 
     670    299.66616    38.696156   -12339.163    1406.4953    1406.4953 
     680    305.67929    39.472637   -12339.941    1394.8606    1394.8606 
     690    280.73139    36.251093   -12336.713     1479.107     1479.107 
     700    283.43761     36.60055   -12337.063    1515.3688    1515.3688 
     710    309.59893    39.978783   -12340.447    1514.4918    1514.4918 
     720    304.83159    39.363173   -12339.828    1552.4923    1552.4923 
     730    296.34369    38.267124    -12338.73    1536.4937    1536.4937 
     740    309.92924    40.021437   -12340.489    1468.9118    1468.9118 
     750    303.63911    39.209187   -12339.675    1489.2313    1489.2313 
     760     287.3141    37.101124   -12337.563    1539.1659    1539.1659 
     770    299.88666    38.724629    -12339.19     1506.778     1506.778 
     780     308.0263    39.775708   -12340.243    1487.1763    1487.1763 
     790    297.04953    38.358268   -12338.821    1508.7104    1508.7104 
     800    304.64368    39.338908   -12339.805     1486.771     1486.771 
     810    305.13221    39.401992    -12339.87     1523.522     1523.522 
     820    283.81473    36.649247    -12337.11    1640.7956    1640.7956 
     830    303.89617    39.242381   -12339.706     1630.766     1630.766 
     840    338.04255    43.651733   -12344.124    1528.3193    1528.3193 
     850    304.96309    39.380153   -12339.845    1516.6271    1516.6271 
     860    270.73046    34.959664   -12335.419    1465.4141    1465.4141 
     870    290.84766    37.557416   -12338.025    1332.5295    1332.5295 
     880    294.95076    38.087253   -12338.554    1331.3698    1331.3698 
     890    280.01732    36.158884    -12336.62    1427.3066    1427.3066 
     900    297.38241    38.401254   -12338.868    1469.3262    1469.3262 
     910    302.25932    39.031014   -12339.498    1568.3849    1568.3849 
     920    291.65864    37.662139   -12338.122    1681.3456    1681.3456 
     930      329.137    42.501752   -12342.969     1598.218     1598.218 
     940    341.34205    44.077801    -12344.55    1517.9117    1517.9117 
     950    283.99472    36.672489   -12337.132    1584.4745    1584.4745 
     960    276.13211    35.657183   -12336.117    1539.2785    1539.2785 
     970    316.32624    40.847488   -12341.319    1417.9198    1417.9198 
     980    299.68262    38.698282   -12339.164    1462.3212    1462.3212 
     990    278.16513     35.91971    -12336.38    1488.6931    1488.6931 
    1000    297.18454    38.375703   -12338.844    1393.6666    1393.6666 
    1010    288.96999    37.314951    -12337.78    1415.2534    1415.2534 
    1020    280.44766    36.214454   -12336.674    1513.9338    1513.9338 
    1030    318.43132    41.119318   -12341.588    1526.5636    1526.5636 
    1040    325.28447    42.004271   -12342.472    1586.4079    1586.4079 
    1050    302.27142    39.032576   -12339.494    1664.3096    1664.3096 
    1060    310.75629    40.128235   -12340.595     1600.278     1600.278 
    1070    303.06792    39.135429   -12339.602    1536.0195    1536.0195 
    1080     284.1864    36.697242   -12337.157    1499.8375    1499.8375 
    1090    308.41909     39.82643   -12340.294    1359.0621    1359.0621 
    1100    305.60466    39.463001   -12339.934    1275.3018    1275.3018 
    1110    246.08331    31.776956   -12332.235    1400.7704    1400.7704 
    1120    258.37835    33.364625   -12333.823    1493.9337    1493.9337 
    1130    333.56523    43.073573   -12343.546    1502.5675    1502.5675 
    1140    336.58496    43.463513   -12343.931    1613.8268    1613.8268 
    1150    305.75371    39.482247   -12339.943    1674.3023    1674.3023 
    1160    309.06729    39.910133   -12340.377    1565.1524    1565.1524 
    1170    299.93242    38.730539   -12339.197    1484.0354    1484.0354 
    1180     281.3389    36.329542   -12336.792    1478.1835    1478.1835 
    1190     290.4627    37.507706   -12337.974    1439.1194    1439.1194 
    1200    293.14172    37.853649    -12338.32    1435.2205    1435.2205 
    1210    286.76128    37.029738   -12337.491    1518.4142    1518.4142 
    1220    313.24573    40.449698   -12340.914    1596.8946    1596.8946 
    1230     343.8784    44.405322   -12344.875    1631.4835    1631.4835 
    1240    327.12363    42.241763   -12342.709    1638.9165    1638.9165 
    1250    288.38028    37.238801   -12337.701    1583.4329    1583.4329 
    1260    277.06022    35.777031    -12336.24    1455.3103    1455.3103 
    1270    290.46129    37.507524   -12337.973    1344.0654    1344.0654 
    1280    294.41051    38.017489   -12338.485    1328.9466    1328.9466 
    1290    277.04686    35.775306   -12336.239    1387.1188    1387.1188 
    1300    275.29903    35.549607   -12336.012    1427.3155    1427.3155 
    1310    304.13494    39.273214   -12339.739    1459.6537    1459.6537 
    1320    321.54551    41.521456    -12341.99     1557.491     1557.491 
    1330    308.20791     39.79916   -12340.263    1662.3485    1662.3485 
    1340    302.37704    39.046214    -12339.51    1630.5862    1630.5862 
    1350    309.87666    40.014648   -12340.482    1504.2448    1504.2448 
    1360    293.22176    37.863985   -12338.329    1467.6668    1467.6668 
    1370    280.25154    36.189129   -12336.651    1497.5269    1497.5269 
    1380    304.72099    39.348891   -12339.814    1499.1978    1499.1978 
    1390    328.08672    42.366128   -12342.835    1507.3571    1507.3571 
    1400    311.30692    40.199338   -12340.665    1569.2603    1569.2603 
    1410    290.76804    37.547134   -12338.009    1598.7625    1598.7625 
    1420    299.15186    38.629744   -12339.096    1513.4485    1513.4485 
    1430    295.90255    38.210158   -12338.678    1400.5765    1400.5765 
    1440    264.94372    34.212418   -12334.675    1366.1852    1366.1852 
    1450    259.55515    33.516587   -12333.977    1398.7158    1398.7158 
    1460    304.46254    39.315517   -12339.781    1449.2073    1449.2073 
    1470    345.36739    44.597597   -12345.068    1535.1581    1535.1581 
    1480    333.03344    43.004903   -12343.472    1667.8507    1667.8507 
    1490    302.09953     39.01038   -12339.472    1715.1941    1715.1941 
    1500    300.86027    38.850353   -12339.315    1577.0852    1577.0852 
    1510    303.54272     39.19674   -12339.664    1401.4457    1401.4457 
    1520    280.17563    36.179327   -12336.644    1355.4698    1355.4698 
    1530    264.76825    34.189758   -12334.651    1406.9718    1406.9718 
    1540    289.92966    37.438874   -12337.904     1464.829     1464.829 
    1550    314.99148    40.675129   -12341.142    1558.2294    1558.2294 
    1560    322.45923    41.639446   -12342.104    1633.9707    1633.9707 
    1570    327.23904    42.256667   -12342.724    1602.5519    1602.5519 
    1580    310.56662    40.103742   -12340.571    1516.6769    1516.6769 
    1590    271.51058    35.060402   -12335.523    1448.4616    1448.4616 
    1600     259.6384    33.527337   -12333.988    1387.8282    1387.8282 
    1610    287.94229    37.182243   -12337.648     1353.888     1353.888 
    1620    308.78652    39.873877   -12340.341    1406.5895    1406.5895 
    1630    309.84012    40.009929   -12340.475    1512.0093    1512.0093 
    1640    305.81414    39.490051   -12339.954    1624.5438    1624.5438 
    1650     311.1111    40.174052   -12340.638     1683.784     1683.784 
    1660    326.59736    42.173806   -12342.641    1643.8473    1643.8473 
    1670    320.81107    41.426618   -12341.894    1566.0788    1566.0788 
    1680     290.8437    37.556905    -12338.02     1481.498     1481.498 
    1690     274.0543    35.388875   -12335.853    1364.8585    1364.8585 
    1700     269.4907    34.799573   -12335.265    1291.2848    1291.2848 
    1710    266.04413    34.354514   -12334.817    1311.7889    1311.7889 
    1720    285.63129    36.883821   -12337.348    1361.0823    1361.0823 
    1730    310.04754    40.036713   -12340.505    1453.9258    1453.9258 
    1740    300.47429    38.800511   -12339.264    1641.1238    1641.1238 
    1750    309.34039    39.945399   -12340.406    1750.8324    1750.8324 
    1760    359.32372     46.39979   -12346.871    1678.3685    1678.3685 
    1770    350.46392    45.255717   -12345.727    1630.1902    1630.1902 
    1780    282.84695    36.524276   -12336.984    1639.9737    1639.9737 
    1790    268.49187    34.670593   -12335.131    1531.0826    1531.0826 
    1800    300.50132    38.804001   -12339.272    1379.1008    1379.1008 
    1810     303.0306     39.13061   -12339.597    1341.0722    1341.0722 
    1820    285.98885    36.929994   -12337.394    1356.9596    1356.9596 
    1830    279.06624    36.036071     -12336.5    1383.6507    1383.6507 
    1840    283.23395    36.574251   -12337.038    1455.5157    1455.5157 
    1850    301.74419    38.964494    -12339.43    1533.3129    1533.3129 
    1860    315.38587    40.726057   -12341.193      1590.13      1590.13 
    1870    313.19506    40.443156   -12340.907    1606.9595    1606.9595 
    1880    314.59756    40.624262    -12341.09     1545.612     1545.612 
    1890    304.90051    39.372073   -12339.839    1484.7138    1484.7138 
    1900    281.32798    36.328131    -12336.79    1466.4415    1466.4415 
    1910    286.46643    36.991663   -12337.456    1396.8579    1396.8579 
    1920    296.78851    38.324564   -12338.793     1355.896     1355.896 
    1930    275.18468    35.534842   -12335.998    1454.4467    1454.4467 
    1940    276.93261    35.760553   -12336.221    1536.9492    1536.9492 
    1950    318.95529    41.186979   -12341.656    1521.6805    1521.6805 
    1960    324.77286    41.938206   -12342.405    1584.0096    1584.0096 
    1970    308.02468    39.775499   -12340.237    1669.5546    1669.5546 
    1980    322.60494    41.658261   -12342.125    1601.1981    1601.1981 
    1990    318.99879    41.192596   -12341.662    1509.0549    1509.0549 
    2000    277.02982    35.773106   -12336.234    1510.3096    1510.3096 
    2010    273.93281    35.373186   -12335.835    1451.5779    1451.5779 
    2020    301.89341    38.983763   -12339.452    1353.0032    1353.0032 
    2030    296.26751    38.257285   -12338.723    1392.2371    1392.2371 
    2040    285.31129    36.842499   -12337.304    1511.0149    1511.0149 
    2050    307.65618    39.727914   -12340.193    1574.8274    1574.8274 
    2060    329.72335    42.577468   -12343.046    1594.8789    1594.8789 
    2070    318.01889    41.066061   -12341.531    1602.4502    1602.4502 
    2080    300.85666    38.849886   -12339.314    1536.5656    1536.5656 
    2090     290.9093    37.565375   -12338.031    1440.9362    1440.9362 
    2100    280.70953     36.24827   -12336.712    1389.7565    1389.7565 
    2110    280.66003    36.241878   -12336.706    1369.2733    1369.2733 
    2120    289.51595     37.38545   -12337.851    1387.7919    1387.7919 
    2130    293.30664    37.874946    -12338.34    1462.6729    1462.6729 
    2140    299.17415    38.632623   -12339.096    1529.9491    1529.9491 
    2150    317.98917    41.062223   -12341.529    1542.3991    1542.3991 
    2160    319.82337    41.299075   -12341.767     1578.137     1578.137 
    2170    298.88726    38.595576   -12339.058    1627.9313    1627.9313 
    2180    302.47813    39.059268   -12339.523    1580.4778    1580.4778 
    2190    318.29328    41.101493    -12341.57    1505.0136    1505.0136 
    2200    300.26611    38.773629   -12339.239    1493.5321    1493.5321 
    2210    279.87954    36.141093   -12336.603    1444.4243    1444.4243 
    2220    285.55416    36.873861   -12337.341    1351.2552    1351.2552 
    2230    278.28878    35.935677     -12336.4    1373.1979    1373.1979 
    2240    276.36356    35.687071   -12336.148    1452.6792    1452.6792 
    2250     313.8658    40.529768   -12340.997    1476.2983    1476.2983 
    2260    326.34783    42.141584   -12342.611    1561.6959    1561.6959 
    2270    301.07975    38.878695    -12339.34     1676.479     1676.479 
    2280    312.12307    40.304728   -12340.769    1626.4166    1626.4166 
    2290    323.32253    41.750925   -12342.222     1526.457     1526.457 
    2300    281.49391    36.349558   -12336.811     1520.645     1520.645 
    2310    275.54861    35.581835   -12336.042     1449.258     1449.258 
    2320    316.13472    40.822756   -12341.294    1345.5463    1345.5463 
    2330    302.27603    39.033172   -12339.499    1415.6504    1415.6504 
    2340    275.32333    35.552745   -12336.012    1501.8191    1501.8191 
    2350    300.21054    38.766453   -12339.233    1472.3829    1472.3829 
    2360     309.5259    39.969353   -12340.437    1503.0174    1503.0174 
    2370    294.61531    38.043936   -12338.505    1573.1064    1573.1064 
    2380     311.7474    40.256218   -12340.723    1543.7208    1543.7208 
    2390    313.45593    40.476842   -12340.944    1545.7276    1545.7276 
    2400    296.65065     38.30676   -12338.767    1578.3545    1578.3545 
    2410    319.57883    41.267497   -12341.736    1499.6482    1499.6482 
    2420    307.87177    39.755754   -12340.225    1483.2671    1483.2671 
    2430    258.99135    33.443782     -12333.9    1525.3158    1525.3158 
    2440     287.9109    37.178189   -12337.643    1397.8166    1397.8166 
    2450    319.86639     41.30463   -12341.779    1343.1348    1343.1348 
    2460    271.86713    35.106443   -12335.565    1534.1256    1534.1256 
    2470    284.12838    36.689749   -12337.149    1573.8715    1573.8715 
    2480    346.84311    44.788157   -12345.265    1471.3528    1471.3528 
    2490    304.93789    39.376899   -12339.841    1565.8379    1565.8379 
    2500    269.89605    34.851915   -12335.307    1563.1156    1563.1156 
    2510     318.6419     41.14651    -12341.62    1354.7993    1354.7993 
    2520     289.5252    37.386646   -12337.854    1391.7756    1391.7756 
    2530    240.08807    31.002785   -12331.455    1521.4073    1521.4073 
    2540    310.96957    40.155776   -12340.625    1425.9127    1425.9127 
    2550    345.67275    44.637029   -12345.111    1490.5026    1490.5026 
    2560    296.83272    38.330271   -12338.787    1723.1964    1723.1964 
    2570    321.23605    41.481496   -12341.948     1662.677     1662.677 
    2580    334.61768    43.209477   -12343.684    1562.6381    1562.6381 
    2590    269.21105    34.763462   -12335.219    1639.1553    1639.1553 
    2600    287.64045    37.143265   -12337.604    1511.7441    1511.7441 
    2610    341.33056    44.076317   -12344.554      1329.44      1329.44 
    2620    282.40832    36.467636   -12336.929    1452.0198    1452.0198 
    2630    253.07772     32.68015   -12333.136    1493.7928    1493.7928 
    2640    310.56325    40.103308   -12340.577    1335.7881    1335.7881 
    2650    296.38979    38.273076    -12338.74    1405.6259    1405.6259 
    2660    266.88712     34.46337    -12334.92    1531.3505    1531.3505 
    2670    309.58003    39.976343   -12340.446    1484.6244    1484.6244 
    2680    310.08842    40.041993   -12340.509     1583.726     1583.726 
    2690    292.63069     37.78766   -12338.244    1726.9528    1726.9528 
    2700     349.3325    45.109615    -12345.58    1592.7873    1592.7873 
    2710    350.39671    45.247037   -12345.721    1504.8687    1504.8687 
    2720    269.71636    34.828712   -12335.286    1569.3604    1569.3604 
    2730    260.30555    33.613486   -12334.075    1425.6462    1425.6462 
    2740    289.80056    37.422203   -12337.893    1250.1167    1250.1167 
    2750    269.30701    34.775853   -12335.237     1370.209     1370.209 
    2760    282.78947    36.516855   -12336.978    1505.7379    1505.7379 
    2770    334.67515    43.216899   -12343.688    1512.4416    1512.4416 
    2780    328.94754    42.477288   -12342.944    1602.2666    1602.2666 
    2790    303.27847    39.162618   -12339.625    1673.7266    1673.7266 
    2800    303.45727    39.185706   -12339.652    1598.1572    1598.1572 
    2810    294.09115    37.976251   -12338.441    1536.4298    1536.4298 
    2820    290.74916    37.544696   -12338.008    1499.1785    1499.1785 
    2830    302.74353    39.093539   -12339.562    1418.8609    1418.8609 
    2840    289.51788      37.3857   -12337.849    1420.9225    1420.9225 
    2850    290.90079    37.564276   -12338.026    1447.5816    1447.5816 
    2860    319.91914    41.311442   -12341.782    1395.4591    1395.4591 
    2870    294.32277    38.006159   -12338.473    1445.0717    1445.0717 
    2880    254.97126    32.924664    -12333.38    1592.2942    1592.2942 
    2890     306.0925    39.525996   -12339.991    1579.9143    1579.9143 
    2900    358.48226    46.291132   -12346.766     1512.216     1512.216 
    2910    312.26245    40.322727   -12340.787    1587.2724    1587.2724 
    2920    269.74939    34.832977   -12335.291    1589.2404    1589.2404 
    2930    290.41896    37.502057    -12337.97     1420.825     1420.825 
    2940    291.78314    37.678215   -12338.145    1347.1982    1347.1982 
    2950    279.27825    36.063448   -12336.524    1415.9041    1415.9041 
    2960    307.54517     39.71358   -12340.181    1465.6904    1465.6904 
    2970    318.60262    41.141438    -12341.61    1552.1313    1552.1313 
    2980    299.02996    38.614003   -12339.075    1671.7629    1671.7629 
    2990    315.70333    40.767051   -12341.232     1660.886     1660.886 
    3000    332.69083    42.960661   -12343.432    1572.9626    1572.9626 
    3010    294.39658    38.015691   -12338.479    1538.8452    1538.8452 
    3020    270.61386    34.944607   -12335.405    1467.7446    1467.7446 
    3030    291.32535      37.6191   -12338.086    1359.6438    1359.6438 
    3040    296.28254    38.259226   -12338.725    1351.1466    1351.1466 
    3050    292.21848    37.734431   -12338.198    1400.7621    1400.7621 
    3060    299.26531    38.644394   -12339.111    1448.2407    1448.2407 
    3070    290.19659    37.473343   -12337.937    1536.4085    1536.4085 
    3080    295.61709    38.173297   -12338.636    1579.6976    1579.6976 
    3090     323.8082     41.81364   -12342.284    1547.2368    1547.2368 
    3100     306.1057      39.5277   -12339.994    1565.2754    1565.2754 
    3110    280.28213    36.193079   -12336.652    1540.0969    1540.0969 
    3120    308.18529     39.79624   -12340.264    1394.2343    1394.2343 
    3130    310.44702    40.088298   -12340.558    1366.7905    1366.7905 
    3140    273.31557    35.293481   -12335.752     1479.578     1479.578 
    3150    291.63259    37.658775   -12338.123    1507.4199    1507.4199 
    3160    316.18048    40.828666   -12341.299    1558.1045    1558.1045 
    3170    293.13322    37.852552   -12338.313    1691.6355    1691.6355 
    3180    311.38593    40.209541   -12340.672    1656.9501    1656.9501 
    3190    350.95717     45.31941   -12345.793    1513.4987    1513.4987 
    3200    308.27381     39.80767   -12340.274    1503.2298    1503.2298 
    3210    254.83225    32.906714   -12333.364    1481.1288    1481.1288 
    3220    275.65062    35.595009   -12336.061    1348.9714    1348.9714 
    3230    293.18574    37.859334   -12338.327    1357.5688    1357.5688 
    3240    288.73793    37.284985   -12337.747    1480.2799    1480.2799 
    3250     307.2831    39.679739   -12340.146    1527.9467    1527.9467 
    3260    313.75318    40.515226   -12340.982    1576.7224    1576.7224 
    3270    304.26211    39.289636   -12339.752    1628.5913    1628.5913 
    3280    320.61599    41.401426   -12341.868    1571.3596    1571.3596 
    3290    323.61436    41.788609   -12342.258    1510.5361    1510.5361 
    3300     283.9062    36.661059   -12337.123    1521.3861    1521.3861 
    3310    270.24869    34.897453   -12335.359    1461.8307    1461.8307 
    3320    290.93355    37.568507   -12338.036    1389.6601    1389.6601 
    3330    296.43693    38.279163   -12338.744    1452.5295    1452.5295 
    3340    305.59989    39.462384   -12339.927    1511.6048    1511.6048 
    3350    316.83049    40.912601   -12341.381    1500.3455    1500.3455 
    3360    293.44158     37.89237   -12338.356    1554.2441    1554.2441 
    3370    283.44028    36.600894   -12337.061    1590.3528    1590.3528 
    3380    319.74789    41.289328   -12341.758    1495.2163    1495.2163 
    3390     323.1367    41.726928   -12342.198      1458.22      1458.22 
    3400    273.03211    35.256878   -12335.717    1548.3153    1548.3153 
    3410    273.69027    35.341867   -12335.803    1513.0512    1513.0512 
    3420    317.99229    41.062626   -12341.533    1408.6522    1408.6522 
    3430    310.01547    40.032572   -12340.499     1482.526     1482.526 
    3440    285.40556    36.854673   -12337.315    1590.7899    1590.7899 
    3450    304.45422    39.314442   -12339.781    1548.6253    1548.6253 
    3460    311.65331    40.244067   -12340.712    1510.3604    1510.3604 
    3470    292.05658    37.713524   -12338.175     1529.707     1529.707 
    3480    301.93371    38.988967   -12339.455    1461.1188    1461.1188 
    3490    304.13481    39.273197   -12339.743    1407.7627    1407.7627 
    3500    269.25321    34.768905    -12335.23    1483.3789    1483.3789 
    3510    273.87199    35.365333   -12335.826    1538.3145    1538.3145 
    3520    321.12856    41.467616   -12341.937    1550.1612    1550.1612 
    3530    329.03454    42.488521   -12342.955    1642.5092    1642.5092 
    3540    319.98748    41.320266   -12341.783    1676.8367    1676.8367 
    3550    325.08637     41.97869   -12342.447    1568.4871    1568.4871 
    3560    299.90028    38.726389   -12339.192    1482.8398    1482.8398 
    3570    271.36486    35.041585   -12335.503     1421.707     1421.707 
    3580    280.94725    36.278967   -12336.745    1345.9303    1345.9303 
    3590    284.53635    36.742431   -12337.209    1408.3435    1408.3435 
    3600    282.32112    36.456376   -12336.918    1578.6286    1578.6286 
    3610    315.92779    40.796036   -12341.263    1623.8134    1623.8134 
    3620    335.35255    43.304371   -12343.774    1568.1204    1568.1204 
    3630    308.97293    39.897948   -12340.361    1536.2444    1536.2444 
    3640    294.59287    38.041038   -12338.505    1475.5813    1475.5813 
    3650    291.56107    37.649539   -12338.116    1411.8551    1411.8551 
    3660    276.01724    35.642351   -12336.105    1423.0953    1423.0953 
    3670     282.0432    36.420488   -12336.884     1448.798     1448.798 
    3680     301.7423     38.96425   -12339.432    1470.8962    1470.8962 
    3690    298.70166     38.57161   -12339.037    1535.9837    1535.9837 
    3700    296.70265    38.313475   -12338.776    1574.1865    1574.1865 
    3710    313.48924    40.481142   -12340.948    1516.2114    1516.2114 
    3720    310.60082    40.108159   -12340.575    1482.8789    1482.8789 
    3730    287.91675    37.178945   -12337.641    1567.5822    1567.5822 
    3740     295.5537    38.165111   -12338.627     1641.465     1641.465 
    3750    329.72093    42.577155   -12343.046    1593.6731    1593.6731 
    3760     324.8023    41.942008   -12342.411      1534.88      1534.88 
    3770    277.68495    35.857703   -12336.319    1517.8835    1517.8835 
    3780    268.19204    34.631875   -12335.092    1424.5254    1424.5254 
    3790    306.90618    39.631066     -12340.1    1322.4157    1322.4157 
    3800    306.79222    39.616351   -12340.084    1437.2538    1437.2538 
    3810    281.78243    36.386815   -12336.846    1621.2828    1621.2828 
    3820     310.6565    40.115349   -12340.581    1617.2821    1617.2821 
    3830    337.49402    43.580901   -12344.052    1591.9776    1591.9776 
    3840    309.73889    39.996857    -12340.46    1650.5976    1650.5976 
    3850    298.67361    38.567988   -12339.032    1565.2258    1565.2258 
    3860    301.67497    38.955556   -12339.425    1396.4796    1396.4796 
    3870    270.48727     34.92826   -12335.391    1361.3795    1361.3795 
    3880     263.5144    34.027848   -12334.489    1347.8554    1347.8554 
    3890    290.60824    37.526499   -12337.995    1346.5315    1346.5315 
    3900    287.24828    37.092625   -12337.557    1494.1326    1494.1326 
    3910    293.53871    37.904913   -12338.365    1597.8185    1597.8185 
    3920    338.45365     43.70482   -12344.176    1539.9278    1539.9278 
    3930     327.3899    42.276147   -12342.744    1606.6534    1606.6534 
    3940    291.33638    37.620524   -12338.078    1720.4834    1720.4834 
    3950    320.33294    41.364876   -12341.832     1602.839     1602.839 
    3960    327.63694    42.308048    -12342.78    1481.1435    1481.1435 
    3970    268.69815     34.69723   -12335.157    1504.6212    1504.6212 
    3980    261.67103    33.789811    -12334.25    1408.4426    1408.4426 
    3990    305.24123    39.416071   -12339.888    1262.0238    1262.0238 
    4000     289.8241    37.425242   -12337.891    1371.5002    1371.5002 
    4010    270.01932    34.867834   -12335.326    1519.6852    1519.6852 
    4020    311.21641     40.18765   -12340.656     1503.258     1503.258 
    4030    327.79167    42.328028   -12342.797    1573.2674    1573.2674 
    4040    305.25377     39.41769   -12339.879     1708.159     1708.159 
    4050    319.16159    41.213619    -12341.68     1633.026     1633.026 
    4060    322.56222    41.652745   -12342.123    1516.8592    1516.8592 
    4070    277.31585    35.810041   -12336.271     1532.251     1532.251 
    4080    271.05126    35.001089   -12335.462    1468.3619    1468.3619 
    4090    307.96454    39.767734   -12340.238    1352.7244    1352.7244 
    4100    298.23456    38.511293   -12338.978    1442.2381    1442.2381 
    4110    275.84715    35.620387   -12336.079    1584.1968    1584.1968 
    4120    317.48319    40.996885   -12341.464    1537.2855    1537.2855 
    4130    340.49669    43.968638   -12344.441    1520.2931    1520.2931 
    4140    294.68515    38.052954   -12338.515    1623.1561    1623.1561 
    4150    277.13701    35.786947   -12336.247    1597.7683    1597.7683 
    4160    306.41874    39.568123   -12340.037    1482.5441    1482.5441 
    4170     305.0462    39.390885   -12339.857    1474.2114    1474.2114 
    4180    288.12706    37.206103   -12337.669    1450.3052    1450.3052 
    4190    290.35221    37.493437    -12337.96    1366.2181    1366.2181 
    4200    282.15411     36.43481   -12336.899    1408.2079    1408.2079 
    4210     287.8076     37.16485   -12337.627     1498.286     1498.286 
    4220    324.83692    41.946479   -12342.415    1519.2132    1519.2132 
    4230    326.35268     42.14221    -12342.61     1616.735     1616.735 
    4240    298.60313    38.558887    -12339.02    1723.3264    1723.3264 
    4250    308.47699    39.833906     -12340.3    1624.0081    1624.0081 
    4260    309.64529     39.98477   -12340.455    1487.5806    1487.5806 
    4270    269.46103    34.795741   -12335.257    1443.6378    1443.6378 
    4280    268.98356    34.734085   -12335.196    1305.2505    1305.2505 
    4290    295.44023    38.150459   -12338.622    1197.8561    1197.8561 
    4300     268.4811    34.669202   -12335.132    1416.6793    1416.6793 
    4310    272.55761    35.195606   -12335.652    1665.1149    1665.1149 
    4320    358.41737    46.282752   -12346.755    1648.0146    1648.0146 
    4330    371.72513    48.001195   -12348.475    1669.3022    1669.3022 
    4340    294.75785    38.062342    -12338.52    1774.6689    1774.6689 
    4350    287.60818    37.139099   -12337.599    1633.4059    1633.4059 
    4360     326.7211    42.189785   -12342.664    1403.6712    1403.6712 
    4370    286.11049    36.945701    -12337.41    1436.0278    1436.0278 
    4380    253.16929    32.691974   -12333.149    1484.1384    1484.1384 
    4390    299.96172    38.734323   -12339.204    1378.9904    1378.9904 
    4400    308.64504    39.855608   -12340.325    1422.7266    1422.7266 
    4410     280.0712    36.165842   -12336.624    1541.5483    1541.5483 
    4420    311.24345    40.191142   -12340.658    1465.9863    1465.9863 
    4430    324.15027    41.857811   -12342.331    1438.8963    1438.8963 
    4440     268.0157    34.609105   -12335.067     1591.445     1591.445 
    4450    277.30858    35.809103   -12336.269    1576.9695    1576.9695 
    4460    334.70285    43.220475   -12343.694    1468.0379    1468.0379 
    4470     314.3895    40.597395   -12341.063    1554.0471    1554.0471 
    4480     287.7337    37.155307   -12337.615    1585.9379    1585.9379 
    4490    307.63653    39.725378   -12340.195    1454.0613    1454.0613 
    4500    286.71147    37.023305   -12337.488    1464.7098    1464.7098 
    4510    273.82901    35.359782   -12335.818    1508.0183    1508.0183 
    4520    325.05278    41.974353   -12342.445    1396.6491    1396.6491 
    4530    318.92106    41.182558   -12341.653    1413.7977    1413.7977 
    4540    261.19522     33.72837   -12334.184    1571.0542    1571.0542 
    4550    287.62318    37.141036   -12337.605    1553.7799    1553.7799 
    4560     330.2577    42.646469   -12343.119    1526.8701    1526.8701 
    4570    304.37775    39.304569   -12339.766    1654.3589    1654.3589 
    4580    311.25936    40.193196   -12340.656    1613.0246    1613.0246 
    4590    335.89055    43.373844   -12343.847    1436.4528    1436.4528 
    4600    284.62778    36.754238   -12337.217    1432.6327    1432.6327 
    4610    253.73069    32.764469   -12333.222    1428.4154    1428.4154 
    4620    291.49479     37.64098   -12338.111    1324.8501    1324.8501 
    4630    289.12283    37.334687   -12337.801    1414.6906    1414.6906 
    4640    276.00195    35.640376   -12336.099    1611.7459    1611.7459 
    4650    324.14109    41.856626   -12342.324    1648.7297    1648.7297 
    4660    351.12226    45.340728   -12345.812    1643.1825    1643.1825 
    4670    316.03771    40.810229   -12341.274    1669.7976    1669.7976 
    4680    293.08153    37.845878   -12338.309    1565.1057    1565.1057 
    4690    291.07307    37.586522   -12338.053    1394.8034    1394.8034 
    4700    279.33266    36.070474   -12336.535    1334.6437    1334.6437 
    4710     276.0924    35.652055   -12336.117    1340.3415    1340.3415 
    4720    282.05881    36.422504   -12336.887    1382.2119    1382.2119 
    4730    296.66582     38.30872   -12338.773    1491.4981    1491.4981 
    4740    317.84404    41.043482    -12341.51    1638.2143    1638.2143 
    4750    321.97363    41.576739   -12342.042    1732.7315    1732.7315 
    4760    323.16655    41.730782   -12342.195    1680.3632    1680.3632 
    4770    326.21582    42.124538   -12342.593    1547.3239    1547.3239 
    4780    296.25024    38.255055   -12338.721    1483.5612    1483.5612 
    4790     262.6978      33.9224   -12334.382    1455.6683    1455.6683 
    4800    283.85208    36.654071   -12337.119    1354.7066    1354.7066 
    4810    304.92791    39.375611   -12339.846    1304.3147    1304.3147 
    4820    277.71009     35.86095   -12336.323    1429.4434    1429.4434 
    4830    276.66411    35.725881   -12336.187    1561.5801    1561.5801 
    4840    318.69113    41.152868   -12341.621    1576.6716    1576.6716 
    4850    330.66408    42.698945   -12343.168     1557.873     1557.873 
    4860    305.38716    39.434915   -12339.899    1553.4721    1553.4721 
    4870    289.30386    37.358063   -12337.821    1532.3735    1532.3735 
    4880    293.75831    37.933271   -12338.398    1492.0586    1492.0586 
    4890    304.17734    39.278689   -12339.745     1465.253     1465.253 
    4900    300.56471    38.812187   -12339.279    1492.4401    1492.4401 
    4910    285.92717    36.922028   -12337.385    1550.2799    1550.2799 
    4920    296.10988    38.236931   -12338.701    1548.3297    1548.3297 
    4930    315.38566    40.726029   -12341.193    1530.5618    1530.5618 
    4940     313.4223    40.472499   -12340.938    1547.0879    1547.0879 
    4950    308.07157    39.781554   -12340.247    1523.7879    1523.7879 
    4960      300.095    38.751533   -12339.218     1471.242     1471.242 
    4970    279.14479    36.046214   -12336.509    1466.0953    1466.0953 
    4980    280.62383    36.237204     -12336.7    1470.8026    1470.8026 
    4990    302.09406    39.009674   -12339.477    1488.4288    1488.4288 
    5000    301.32823    38.910781   -12339.375    1557.9619    1557.9619 
    5010    307.00907    39.644353   -12340.108    1561.5876    1561.5876 
    5020    324.34713    41.883231   -12342.352    1519.1656    1519.1656 
    5030     308.0883    39.783715   -12340.249    1562.7892    1562.7892 
    5040    288.01289    37.191359   -12337.653     1579.434     1579.434 
    5050     302.6285    39.078686   -12339.546    1453.9435    1453.9435 
    5060    295.01271    38.095252   -12338.563    1381.1993    1381.1993 
    5070    263.99772    34.090259    -12334.55    1440.8275    1440.8275 
    5080    283.81157    36.648839   -12337.112    1469.0574    1469.0574 
    5090    322.55348    41.651617   -12342.121    1485.4919    1485.4919 
    5100    320.07547    41.331628   -12341.797     1549.074     1549.074 
    5110    305.43548    39.441153   -12339.906    1553.8341    1553.8341 
    5120    291.95196    37.700015   -12338.166    1533.0238    1533.0238 
    5130    278.79948    36.001624   -12336.463    1557.2595    1557.2595 
    5140    300.59232    38.815752   -12339.281     1515.097     1515.097 
    5150    323.34675    41.754052   -12342.224    1459.3158    1459.3158 
    5160    300.30696    38.778904   -12339.243    1525.9918    1525.9918 
    5170     288.8632     37.30116   -12337.762    1575.4032    1575.4032 
    5180    315.72791    40.770224   -12341.239    1513.2146    1513.2146 
    5190    308.67315    39.859237   -12340.327    1505.0197    1505.0197 
    5200    278.08368    35.909192   -12336.369    1522.8582    1522.8582 
    5210    291.88946    37.691944   -12338.157    1426.9587    1426.9587 
    5220    306.04123    39.519375   -12339.988    1384.6649    1384.6649 
    5230    285.46932    36.862906   -12337.326     1475.407     1475.407 
    5240    285.67898     36.88998   -12337.353    1501.2964    1501.2964 
    5250    310.10294    40.043867   -12340.511    1469.5113    1469.5113 
    5260    312.13046    40.305682   -12340.772    1527.3071    1527.3071 
    5270     301.5092     38.93415   -12339.398    1587.4253    1587.4253 
    5280    299.92338    38.729372   -12339.195    1566.6556    1566.6556 
    5290    299.93619    38.731025   -12339.196    1557.7965    1557.7965 
    5300    307.06703    39.651838   -12340.117    1565.9847    1565.9847 
    5310    316.68962    40.894411   -12341.362    1540.7175    1540.7175 
    5320    306.58025    39.588979   -12340.054    1539.9478    1539.9478 
    5330    297.33659    38.395337   -12338.859    1532.4094    1532.4094 
    5340    301.46279    38.928157   -12339.395    1460.5066    1460.5066 
    5350    289.82343    37.425156   -12337.891    1431.3548    1431.3548 
    5360    273.67994    35.340533   -12335.802    1475.8652    1475.8652 
    5370    290.51627    37.514623    -12337.98    1452.8609    1452.8609 
    5380    306.16298    39.535097   -12340.004    1419.7561    1419.7561 
    5390    290.16705    37.469527   -12337.933    1515.5226    1515.5226 
    5400     290.2917    37.485623   -12337.947    1601.3905    1601.3905 
    5410    323.07727    41.719254   -12342.187    1546.3293    1546.3293 
    5420    324.29677    41.876729   -12342.346    1523.2918    1523.2918 
    5430    288.57925    37.264494   -12337.725    1588.2823    1588.2823 
    5440    292.05674    37.713545   -12338.177    1516.0738    1516.0738 
    5450    313.56622    40.491083   -12340.961    1391.3854    1391.3854 
    5460     291.1358    37.594623    -12338.06    1444.7207    1444.7207 
    5470    270.72855    34.959418   -12335.419     1531.146     1531.146 
    5480    299.19208    38.634938   -12339.102    1478.9976    1478.9976 
    5490    310.22847    40.060077   -12340.529     1488.132     1488.132 
    5500    291.64073    37.659826   -12338.121    1580.7761    1580.7761 
    5510    310.34467    40.075082    -12340.54    1529.3599    1529.3599 
    5520    324.81902    41.944167   -12342.415    1461.0251    1461.0251 
    5530     284.8409    36.781757   -12337.243    1553.3142    1553.3142 
    5540     281.6367    36.367996   -12336.828    1565.9157    1565.9157 
    5550    325.58191     42.04268   -12342.514    1470.2475    1470.2475 
    5560    312.62166    40.369111   -12340.836    1536.4694    1536.4694 
    5570     283.3062    36.583581   -12337.043    1609.0168    1609.0168 
    5580    306.68235    39.602164    -12340.07    1506.6799    1506.6799 
    5590    308.10086    39.785337   -12340.253    1490.8458    1490.8458 
    5600    285.20182    36.828364   -12337.287    1572.1941    1572.1941 
    5610    318.01232    41.065213   -12341.533    1475.7875    1475.7875 
    5620     323.2731    41.744542   -12342.217    1413.3013    1413.3013 
    5630    260.36487    33.621146   -12334.079    1530.0469    1530.0469 
    5640    265.60166    34.297377   -12334.758    1485.9396    1485.9396 
    5650    315.90784    40.793459   -12341.268    1349.1527    1349.1527 
    5660    285.53374    36.871224   -12337.334    1456.8537    1456.8537 
    5670    273.20756    35.279534   -12335.736    1527.6731    1527.6731 
    5680    338.37278    43.694376   -12344.168     1382.632     1382.632 
    5690    325.30077    42.006376   -12342.477    1455.9496    1455.9496 
    5700    261.94467    33.825147   -12334.279    1681.9319    1681.9319 
    5710    299.71383    38.702312   -12339.167    1629.6738    1629.6738 
    5720    341.40157    44.085487    -12344.56    1547.7603    1547.7603 
    5730    299.58317     38.68544   -12339.146      1664.89      1664.89 
    5740    297.94867    38.474375   -12338.936    1595.6965    1595.6965 
    5750    325.32135    42.009034   -12342.483    1360.3257    1360.3257 
    5760    273.97046    35.378048   -12335.841    1357.7984    1357.7984 
    5770    241.06579    31.129038   -12331.585    1421.6051    1421.6051 
    5780    295.14645    38.112522   -12338.582    1363.4274    1363.4274 
    5790     316.2404    40.836403   -12341.306    1460.9104    1460.9104 
    5800    298.74515    38.577225   -12339.037    1656.4209    1656.4209 
    5810    329.62059    42.564199   -12343.031     1636.826     1636.826 
    5820    342.47883    44.224594   -12344.696    1563.6868    1563.6868 
    5830    292.15317    37.725998   -12338.187    1597.0766    1597.0766 
    5840    275.38978    35.561325   -12336.023    1511.2445    1511.2445 
    5850    296.21856    38.250964    -12338.72    1359.4532    1359.4532 
    5860     285.3057    36.841777   -12337.306    1420.6234    1420.6234 
    5870    283.20553     36.57058   -12337.032    1548.1813    1548.1813 
    5880    318.85957    41.174618   -12341.643    1538.9492    1538.9492 
    5890    326.74487    42.192854   -12342.661    1535.8027    1535.8027 
    5900    301.64743       38.952   -12339.415    1561.5119    1561.5119 
    5910    291.45788    37.636215   -12338.102     1488.027     1488.027 
    5920    280.93364    36.277209   -12336.742     1440.592     1440.592 
    5930    273.70958     35.34436   -12335.806    1487.2966    1487.2966 
    5940    303.47786    39.188365   -12339.654    1476.2099    1476.2099 
    5950    322.65758    41.665058   -12342.135    1467.1602    1467.1602 
    5960    299.41103    38.663211   -12339.126    1569.9952    1569.9952 
    5970    299.19661    38.635522   -12339.097    1603.5754    1603.5754 
    5980    329.85444    42.594396   -12343.065    1499.0548    1499.0548 
    5990    308.27251    39.807502   -12340.275    1491.4887    1491.4887 
    6000    260.61041    33.652853   -12334.111    1548.5937    1548.5937 
    6010     276.9855    35.767383   -12336.231    1459.2734    1459.2734 
    6020     308.8398    39.880757   -12340.351    1387.9953    1387.9953 
    6030    291.49732    37.641306   -12338.104    1487.4176    1487.4176 
    6040    293.06436    37.843661   -12338.306    1505.8547    1505.8547 
    6050    322.47168    41.641054   -12342.112    1435.6152    1435.6152 
    6060    301.07419    38.877976   -12339.343    1542.7309    1542.7309 
    6070    277.85492    35.879651   -12336.338    1656.3753    1656.3753 
    6080    319.94076    41.314234   -12341.781    1548.6644    1548.6644 
    6090    340.18572    43.928483   -12344.401    1469.1106    1469.1106 
    6100    291.33536    37.620393   -12338.082    1554.1658    1554.1658 
    6110    276.08931    35.651657   -12336.113    1540.9367    1540.9367 
    6120    301.39163    38.918967   -12339.387    1470.4125    1470.4125 
    6130    298.32243     38.52264   -12338.988    1523.7741    1523.7741 
    6140    293.62284    37.915777   -12338.379    1564.6153    1564.6153 
    6150    309.58564    39.977067   -12340.444    1526.1506    1526.1506 
    6160    308.63213     39.85394   -12340.319    1522.7377    1522.7377 
    6170    303.55097    39.197805   -12339.662    1489.4416    1489.4416 
    6180    306.77444    39.614055   -12340.082     1396.376     1396.376 
    6190    284.00497    36.673813   -12337.138    1399.3138    1399.3138 
    6200    271.56048    35.066845   -12335.528    1432.0212    1432.0212 
    6210    292.99061    37.834137   -12338.302    1431.3253    1431.3253 
    6220     294.0894    37.976025   -12338.441    1553.6722    1553.6722 
    6230    300.05479    38.746341   -12339.207    1676.4729    1676.4729 
    6240    344.81194     44.52587   -12344.996    1586.0526    1586.0526 
    6250    336.02069    43.390649   -12343.862    1502.3333    1502.3333 
    6260    269.67476    34.823341   -12335.282    1538.5919    1538.5919 
    6270    266.06592    34.357328   -12334.819    1457.0425    1457.0425 
    6280    300.20733    38.766039   -12339.237    1322.8327    1322.8327 
    6290    281.03722    36.290585   -12336.754    1392.4286    1392.4286 
    6300     279.3148    36.068167   -12336.528     1502.841     1502.841 
    6310    321.78613    41.552528   -12342.022    1535.8495    1535.8495 
    6320    322.05388    41.587103   -12342.053     1631.661     1631.661 
    6330    311.21115    40.186971   -12340.648    1661.3178    1661.3178 
    6340    328.57197    42.428789   -12342.899    1524.8366    1524.8366 
    6350    302.27515    39.033057     -12339.5    1475.3928    1475.3928 
    6360    263.65803    34.046395   -12334.504    1527.3403    1527.3403 
    6370    293.87632    37.948509   -12338.415    1468.1543    1468.1543 
    6380    314.34771    40.591998   -12341.062      1431.98      1431.98 
    6390    286.37123    36.979371   -12337.441    1500.7931    1500.7931 
    6400    291.26062    37.610742   -12338.074    1486.8177    1486.8177 
    6410    314.28705    40.584165   -12341.054    1436.8975    1436.8975 
    6420    296.28176    38.259126   -12338.723    1511.5574    1511.5574 
    6430    289.14732    37.337849     -12337.8    1566.8143    1566.8143 
    6440    309.00738    39.902397    -12340.37    1526.8666    1526.8666 
    6450    304.88676    39.370297   -12339.835    1530.1582    1530.1582 
    6460    298.49985     38.54555   -12339.009    1533.1738    1533.1738 
    6470    304.60172     39.33349   -12339.801    1457.8508    1457.8508 
    6480    289.11106    37.333166   -12337.798    1405.6576    1405.6576 
    6490    277.69786    35.859371   -12336.321     1419.937     1419.937 
    6500    296.62951    38.304031    -12338.77    1486.5515    1486.5515 
    6510    307.10599    39.656868   -12340.123    1624.9799    1624.9799 
    6520    313.79873    40.521107   -12340.984    1719.4298    1719.4298 
    6530     340.0976    43.917104   -12344.386    1646.6657    1646.6657 
    6540    329.31147    42.524281   -12342.994    1537.9958    1537.9958 
    6550    277.26075    35.802926   -12336.264    1479.0871    1479.0871 
    6560    263.78365    34.062616   -12334.524    1378.3491    1378.3491 
    6570    288.88274    37.303684   -12337.772    1276.2918    1276.2918 
    6580    285.43051    36.857894   -12337.325    1321.0197    1321.0197 
    6590    264.51155     34.15661   -12334.617    1475.9705    1475.9705 
    6600    293.22654    37.864603   -12338.328    1557.9386    1557.9386 
    6610    342.63577    44.244861   -12344.716    1563.6667    1563.6667 
    6620    333.39229    43.051241    -12343.52    1603.6749    1603.6749 
    6630    285.51152    36.868355   -12337.328    1652.6804    1652.6804 
    6640    287.71697    37.153147   -12337.615    1591.6458    1591.6458 
    6650    324.67325    41.925344   -12342.395    1485.3958    1485.3958 
    6660     314.4028    40.599111   -12341.066    1492.0415    1492.0415 
    6670    281.33689    36.329282    -12336.79    1535.9023    1535.9023 
    6680    291.33541    37.620399   -12338.085    1462.9191    1462.9191 
    6690    303.01231    39.128248   -12339.597    1398.2779    1398.2779 
    6700    281.67067    36.372383   -12336.835    1467.6241    1467.6241 
    6710    286.10841    36.945432   -12337.408    1513.2648    1513.2648 
    6720    316.79302    40.907763   -12341.377    1469.1176    1469.1176 
    6730    311.18322    40.183365    -12340.65    1489.9177    1489.9177 
    6740    290.13178    37.464973   -12337.927    1564.5768    1564.5768 
    6750    301.51918    38.935438   -12339.401    1550.8545    1550.8545 
    6760    312.93128    40.409093   -12340.877    1509.6328    1509.6328 
    6770    300.33584    38.782632   -12339.247    1530.8266    1530.8266 
    6780    292.69184    37.795557   -12338.259    1550.7215    1550.7215 
    6790    296.73674    38.317878   -12338.784    1541.5273    1541.5273 
    6800    296.63371    38.304574   -12338.769    1554.2828    1554.2828 
    6810    306.73706    39.609228   -12340.074    1529.8568    1529.8568 
    6820    317.95396    41.057676   -12341.525    1451.6596    1451.6596 
    6830    302.22518    39.026605   -12339.492    1416.8885    1416.8885 
    6840    278.76829    35.997596    -12336.46    1430.6916    1430.6916 
    6850    279.49212    36.091065   -12336.555    1419.8645    1419.8645 
    6860     289.5879    37.394742   -12337.862    1420.6967    1420.6967 
    6870    285.35131    36.847667   -12337.312    1503.1587    1503.1587 
    6880    291.11108    37.591432   -12338.054    1569.2912    1569.2912 
    6890    318.17781    41.086582   -12341.553    1562.0848    1562.0848 
    6900    332.86883    42.983647   -12343.451    1574.8305    1574.8305 
    6910    319.66591    41.278742   -12341.743    1613.7034    1613.7034 
    6920    307.33917    39.686979   -12340.152     1574.124     1574.124 
    6930       299.85    38.719896   -12339.186    1506.4851    1506.4851 
    6940    284.39791    36.724553   -12337.188    1496.2967    1496.2967 
    6950    281.67847    36.373391   -12336.837    1460.4114    1460.4114 
    6960    297.26788    38.386465   -12338.853    1384.3149    1384.3149 
    6970    299.10607    38.623831    -12339.09     1392.094     1392.094 
    6980    286.55657    37.003303   -12337.466    1470.5748    1470.5748 
    6990    295.34789    38.138534   -12338.603    1491.2197    1491.2197 
    7000    308.49776    39.836589   -12340.304    1514.7298    1514.7298 
    7010    299.27941    38.646215    -12339.11    1598.6533    1598.6533 
    7020    299.15869    38.630626   -12339.093    1608.1055    1608.1055 
    7030     317.9937    41.062808   -12341.531    1511.1401    1511.1401 
    7040    307.91788    39.761708   -12340.228    1472.3625    1472.3625 
    7050    284.46169     36.73279   -12337.194     1489.224     1489.224 
    7060    294.84116    38.073099   -12338.538    1471.7377    1471.7377 
    7070    311.85755    40.270441   -12340.738    1489.6056    1489.6056 
    7080    304.95747    39.379428   -12339.844    1564.7906    1564.7906 
    7090    303.89349    39.242036   -12339.706    1572.4047    1572.4047 
    7100    307.80596    39.747256   -12340.215     1527.613     1527.613 
    7110    288.50586    37.255017   -12337.718    1535.1618    1535.1618 
    7120    285.50446    36.867444    -12337.33    1505.1641    1505.1641 
    7130    306.50804    39.579654   -12340.047    1431.4276    1431.4276 
    7140    301.12379    38.884382   -12339.351    1443.7153    1443.7153 
    7150    278.70944    35.989997   -12336.452    1500.9524    1500.9524 
    7160    286.82556    37.038038   -12337.502    1480.2893    1480.2893 
    7170    307.07163    39.652431   -12340.119    1450.0852    1450.0852 
    7180    311.05124    40.166322   -12340.632    1477.6595    1477.6595 
    7190    306.96609    39.638803   -12340.105    1516.9765    1516.9765 
    7200    296.52152    38.290086   -12338.754    1569.6761    1569.6761 
    7210    297.37102    38.399782   -12338.863    1608.3449    1608.3449 
    7220     317.0065     40.93533   -12341.403    1576.6814    1576.6814 
    7230    312.85409    40.399125   -12340.867     1507.776     1507.776 
    7240    279.98285    36.154433   -12336.616     1436.799     1436.799 
    7250    275.77386    35.610922   -12336.074    1345.8419    1345.8419 
    7260    289.47909    37.380692   -12337.848    1341.4972    1341.4972 
    7270    287.62315    37.141032   -12337.604     1482.483     1482.483 
    7280     304.9661    39.380543   -12339.844    1611.5669    1611.5669 
    7290    335.09321    43.270882   -12343.739    1656.0582    1656.0582 
    7300    331.43843    42.798938   -12343.265    1673.2965    1673.2965 
    7310    312.38129    40.338073   -12340.802    1632.5312    1632.5312 
    7320    300.48976    38.802509   -12339.269    1520.5066    1520.5066 
    7330    281.15232    36.305447    -12336.77    1411.1084    1411.1084 
    7340    269.19817    34.761798   -12335.224    1357.1422    1357.1422 
    7350    283.59662    36.621082   -12337.086    1391.6877    1391.6877 
    7360     300.6653    38.825176   -12339.291    1501.5776    1501.5776 
    7370     314.1359    40.564647    -12341.03     1558.285     1558.285 
    7380    319.25349    41.225485   -12341.694    1534.5145    1534.5145 
    7390    293.47791    37.897062   -12338.361    1537.5711    1537.5711 
    7400    281.00805    36.286818   -12336.748    1520.7751    1520.7751 
    7410    309.78411    40.002696   -12340.471    1454.7802    1454.7802 
    7420    312.26982    40.323678   -12340.792    1470.4802    1470.4802 
    7430    284.47797    36.734892   -12337.196    1515.5886    1515.5886 
    7440    292.41289    37.759535   -12338.224    1453.3445    1453.3445 
    7450    303.44385    39.183973   -12339.652    1438.8332    1438.8332 
    7460    285.12172     36.81802    -12337.28    1532.9827    1532.9827 
    7470    292.48911    37.769378   -12338.233    1536.7921    1536.7921 
    7480    317.18492     40.95837   -12341.427    1489.7972    1489.7972 
    7490    307.97695    39.769336   -12340.234    1549.7569    1549.7569 
    7500    301.30498    38.907778    -12339.37    1592.2464    1592.2464 
    7510    315.96145    40.800382   -12341.269    1537.4099    1537.4099 
    7520    299.03888    38.615156   -12339.081    1513.5899    1513.5899 
    7530    274.47655    35.443399   -12335.905    1473.5739    1473.5739 
    7540    286.12424    36.947477   -12337.412    1392.9549    1392.9549 
    7550    302.60175    39.075231   -12339.542    1428.3156    1428.3156 
    7560    307.58753     39.71905   -12340.184    1548.0551    1548.0551 
    7570    313.34156    40.462073   -12340.928     1588.661     1588.661 
    7580    307.57257    39.717118   -12340.182    1590.6626    1590.6626 
    7590     302.5415    39.067452    -12339.53    1602.7962    1602.7962 
    7600    316.03129      40.8094   -12341.277    1554.9464    1554.9464 
    7610    304.84283    39.364624   -12339.832    1506.4907    1506.4907 
    7620    274.73554    35.476843   -12335.938    1471.1532    1471.1532 
    7630    280.03906    36.161691   -12336.626    1379.5704    1379.5704 
    7640    299.02995    38.614002   -12339.082     1336.072     1336.072 
    7650    292.79858     37.80934   -12338.273    1448.2665    1448.2665 
    7660     295.2666    38.128038   -12338.591    1554.6389    1554.6389 
    7670    312.78849    40.390654   -12340.859    1545.6393    1545.6393 
    7680    300.13917    38.757236   -12339.222    1574.1367    1574.1367 
    7690    290.83694    37.556032   -12338.017    1637.2404    1637.2404 
    7700    323.72012    41.802265   -12342.269    1589.7943    1589.7943 
    7710    337.01735    43.519349    -12343.99    1502.6117    1502.6117 
    7720    295.32165    38.135146   -12338.599    1496.4361    1496.4361 
    7730    262.74343    33.928292   -12334.388    1500.2021    1500.2021 
    7740    285.52107    36.869589   -12337.335    1433.1513    1433.1513 
    7750    308.07175    39.781578   -12340.251    1406.4824    1406.4824 
    7760    289.41913    37.372948   -12337.837    1469.8719    1469.8719 
    7770    281.25477    36.318678   -12336.781     1482.388     1482.388 
    7780    301.26679    38.902847    -12339.37    1443.1342    1443.1342 
    7790     305.6208    39.465084   -12339.931    1482.2957    1482.2957 
    7800    300.45174    38.797599    -12339.26    1555.4076    1555.4076 
    7810    314.92203    40.666161   -12341.133    1555.8007    1555.8007 
    7820    309.98446    40.028568   -12340.496    1573.1308    1573.1308 
    7830    284.89117    36.788249   -12337.248    1630.1176    1630.1176 
    7840    307.18659    39.667276   -12340.131    1588.5145    1588.5145 
    7850    337.17139     43.53924   -12344.011    1531.6393    1531.6393 
    7860    302.60825    39.076071    -12339.54    1576.2116    1576.2116 
    7870    275.85263    35.621094   -12336.081    1529.8619    1529.8619 
    7880    300.57291    38.813246   -12339.282    1368.1011    1368.1011 
    7890    293.53655    37.904635   -12338.372    1370.2409    1370.2409 
    7900    266.52588    34.416723   -12334.876    1496.0329    1496.0329 
    7910      297.581    38.426898   -12338.892    1507.5092    1507.5092 
    7920    328.38422    42.404544   -12342.875    1517.1517    1517.1517 
    7930    309.58609    39.977126    -12340.44    1615.3984    1615.3984 
    7940     306.2412    39.545198   -12340.009    1601.6446    1601.6446 
    7950    310.92035     40.14942   -12340.618    1490.5366    1490.5366 
    7960    283.74298    36.639982   -12337.103    1429.9049    1429.9049 
    7970    271.78988    35.096468   -12335.559    1384.0627    1384.0627 
    7980    286.12875    36.948059   -12337.414      1379.26      1379.26 
    7990    295.63678    38.175839   -12338.639    1485.3346    1485.3346 
    8000    319.76973    41.292148   -12341.758    1575.7806    1575.7806 
    8010    334.05502    43.136821   -12343.607    1598.4195    1598.4195 
    8020    296.58118     38.29779   -12338.761    1621.2732    1621.2732 
    8030    275.98945    35.638761   -12336.099    1548.4523    1548.4523 
    8040    303.12778    39.143159   -12339.612     1383.797     1383.797 
    8050     295.6208    38.173776   -12338.641    1353.8155    1353.8155 
    8060    269.65771    34.821139   -12335.281    1437.0615    1437.0615 
    8070    296.80106    38.326184   -12338.792    1466.4256    1466.4256 
    8080    323.10264     41.72253   -12342.192    1522.9569    1522.9569 
    8090    308.25642    39.805425   -12340.269    1646.3696    1646.3696 
    8100    304.95174    39.378688   -12339.843    1675.6822    1675.6822 
    8110    313.47861     40.47977   -12340.947    1589.1465    1589.1465 
    8120    306.43421    39.570121   -12340.035     1494.173     1494.173 
    8130    299.57308    38.684137   -12339.149     1443.301     1443.301 
    8140    290.81701    37.553458   -12338.018    1453.1946    1453.1946 
    8150     286.5508    37.002558   -12337.465    1453.1325    1453.1325 
    8160    302.83716     39.10563   -12339.573    1418.4218    1418.4218 
    8170    300.21296    38.766765   -12339.234    1485.8136    1485.8136 
    8180    284.62795    36.754258   -12337.215    1595.5052    1595.5052 
    8190    309.62159     39.98171   -12340.448    1554.0382    1554.0382 
    8200    320.91846    41.440485   -12341.911    1497.0355    1497.0355 
    8210     285.0848    36.813252   -12337.274     1530.147     1530.147 
    8220    290.22494    37.477003   -12337.939      1459.68      1459.68 
    8230    317.83137    41.041846   -12341.514     1352.062     1352.062 
    8240    281.69178    36.375109   -12336.839    1427.9488    1427.9488 
    8250    259.22741    33.474265   -12333.932    1515.4952    1515.4952 
    8260    304.98846     39.38343   -12339.852    1502.9525    1502.9525 
    8270    324.53858    41.907954   -12342.376    1577.7796    1577.7796 
    8280    314.09342    40.559161   -12341.021    1659.2519    1659.2519 
    8290    328.01484    42.356846   -12342.825     1590.061     1590.061 
    8300    313.10724    40.431815   -12340.899    1544.3284    1544.3284 
    8310     278.1026    35.911635   -12336.371    1538.0768    1538.0768 
    8320    293.19707    37.860797   -12338.327    1428.1508    1428.1508 
    8330    299.92827    38.730003   -12339.199    1380.7875    1380.7875 
    8340    268.56018    34.679414    -12335.14    1462.9283    1462.9283 
    8350     281.6652    36.371677   -12336.835    1441.3761    1441.3761 
    8360    309.70169    39.992053   -12340.461    1402.7702    1402.7702 
    8370    299.69299    38.699622   -12339.163     1503.607     1503.607 
    8380     306.4827    39.576383    -12340.04    1562.3653    1562.3653 
    8390    323.84302    41.818136   -12342.288     1539.617     1539.617 
    8400    298.83321    38.588597   -12339.052    1593.0154    1593.0154 
    8410    288.57911    37.264476   -12337.726    1611.2891    1611.2891 
    8420    314.53526    40.616216   -12341.086    1523.3864    1523.3864 
    8430    302.63411     39.07941   -12339.545    1520.3064    1520.3064 
    8440    284.67882    36.760828   -12337.221    1537.5148    1537.5148 
    8450    308.51383    39.838663   -12340.306    1436.2589    1436.2589 
    8460    307.76419    39.741862    -12340.21    1407.1155    1407.1155 
    8470    279.24334    36.058939    -12336.52    1511.8595    1511.8595 
    8480     291.1395    37.595101   -12338.059    1543.0148    1543.0148 
    8490    315.40041    40.727933   -12341.197    1515.8719    1515.8719 
    8500    304.80529    39.359776   -12339.824    1564.4021    1564.4021 
    8510    297.98637    38.479244   -12338.942    1578.9661    1578.9661 
    8520    310.18979    40.055082   -12340.523    1479.0857    1479.0857 
    8530    299.27656    38.645848   -12339.112    1424.4401    1424.4401 
    8540    278.84744    36.007816   -12336.471    1452.4065    1452.4065 
    8550    282.95153    36.537781   -12337.001    1460.2812    1460.2812 
    8560     303.0415    39.132017   -12339.598    1457.4139    1457.4139 
    8570    311.43676    40.216104   -12340.683    1522.8275    1522.8275 
    8580    306.56965    39.587611   -12340.052    1598.4757    1598.4757 
    8590    309.47061    39.962213   -12340.427    1578.0738    1578.0738 
    8600    309.68616    39.990048   -12340.457    1522.0952    1522.0952 
    8610    288.41785    37.243652   -12337.708    1513.6304    1513.6304 
    8620    277.96783    35.894232   -12336.357    1480.5233    1480.5233 
    8630    295.29112    38.131203   -12338.597    1425.2238    1425.2238 
    8640    305.27726    39.420723   -12339.887    1453.3441    1453.3441 
    8650    304.85906     39.36672   -12339.832    1501.2083    1501.2083 
    8660    302.77858    39.098066   -12339.564    1503.3713    1503.3713 
    8670    290.74465    37.544114   -12338.008    1522.9097    1522.9097 
    8680    292.79246    37.808549   -12338.271    1539.4973    1539.4973 
    8690    317.80985    41.039067   -12341.507    1513.6066    1513.6066 
    8700    313.95329    40.541066   -12341.008    1540.4164    1540.4164 
    8710     291.0015    37.577282   -12338.039     1575.338     1575.338 
    8720    303.68594    39.215234   -12339.681    1502.1728    1502.1728 
    8730    313.05378    40.424911   -12340.894    1459.4954    1459.4954 
    8740    288.78371    37.290896   -12337.754    1513.4131    1513.4131 
    8750    285.90545    36.919224   -12337.383    1481.6344    1481.6344 
    8760     296.9118    38.340483   -12338.808    1409.1203    1409.1203 
    8770    284.01603    36.675241   -12337.138    1470.8988    1470.8988 
    8780    290.33523    37.491245   -12337.953    1550.2077    1550.2077 
    8790    323.15245    41.728962   -12342.197    1534.5442    1534.5442 
    8800    323.51528    41.775814   -12342.243    1528.5768    1528.5768 
    8810    301.06722    38.877077   -12339.341     1533.235     1533.235 
    8820    290.06733    37.456651   -12337.922    1507.2112    1507.2112 
    8830    279.62012    36.107594   -12336.571    1528.5518    1528.5518 
    8840    288.44902    37.247677    -12337.71    1549.0641    1549.0641 
    8850    316.67407    40.892403   -12341.361     1492.466     1492.466 
    8860    307.44598    39.700771   -12340.167    1484.3587    1484.3587 
    8870    289.10213    37.332014   -12337.792    1536.1033    1536.1033 
    8880    313.17994    40.441203   -12340.908    1529.2772    1529.2772 
    8890    321.13464      41.4684   -12341.938    1518.5376    1518.5376 
    8900    287.75588    37.158172    -12337.62    1548.6027    1548.6027 
    8910    281.40555    36.338148   -12336.801    1506.1878    1506.1878 
    8920    299.93345    38.730672   -12339.199    1426.2565    1426.2565 
    8930     294.5508    38.035606     -12338.5    1445.3172    1445.3172 
    8940    298.15121    38.500529   -12338.965    1466.9221    1466.9221 
    8950    309.09692    39.913958   -12340.383    1451.3825    1451.3825 
    8960    286.79259    37.033781   -12337.497    1510.7022    1510.7022 
    8970    279.90654    36.144579   -12336.605    1569.6858    1569.6858 
    8980     314.8356    40.654999   -12341.123    1535.7742    1535.7742 
    8990    318.62962    41.144925   -12341.613    1523.6512    1523.6512 
    9000    291.01109    37.578519    -12338.04    1544.7229    1544.7229 
    9010    297.27876     38.38787   -12338.853    1493.4422    1493.4422 
    9020     309.0044    39.902011    -12340.37    1458.2894    1458.2894 
    9030    295.09801    38.106267    -12338.57     1510.114     1510.114 
    9040    292.27954    37.742316   -12338.205    1552.4395    1552.4395 
    9050    308.47327    39.833427     -12340.3     1544.976     1544.976 
    9060    310.76795     40.12974   -12340.596    1557.1288    1557.1288 
    9070     304.5459    39.326282   -12339.791    1580.4669    1580.4669 
    9080    305.06375    39.393152   -12339.858    1575.1671    1575.1671 
    9090    305.09191    39.396788   -12339.863    1540.4739    1540.4739 
    9100    297.57347    38.425925   -12338.891    1478.0187    1478.0187 
    9110    285.70552    36.893407   -12337.358    1407.4292    1407.4292 
    9120    281.56561    36.358816   -12336.823     1378.901     1378.901 
    9130    289.55113    37.389993   -12337.855    1422.4686    1422.4686 
    9140    299.44951    38.668181   -12339.134    1509.9209    1509.9209 
    9150    304.92132    39.374759   -12339.839    1589.4554    1589.4554 
    9160    317.53638    41.003753   -12341.469    1597.5842    1597.5842 
    9170    322.62716    41.661131   -12342.129    1547.6054    1547.6054 
    9180    297.05324    38.358747   -12338.824    1496.0797    1496.0797 
    9190    269.97289    34.861838   -12335.324    1430.8391    1430.8391 
    9200    273.71835    35.345493    -12335.81    1360.0536    1360.0536 
    9210    289.83212    37.426278   -12337.892    1382.9735    1382.9735 
    9220    305.27962    39.421028   -12339.885    1505.7068    1505.7068 
    9230    325.80457    42.071433   -12342.538     1611.934     1611.934 
    9240    329.65398    42.568511   -12343.036    1659.5953    1659.5953 
    9250    309.34924    39.946541    -12340.41    1649.6967    1649.6967 
    9260    298.02255    38.483915   -12338.949    1537.1683    1537.1683 
    9270    290.82713    37.554764   -12338.021    1398.4638    1398.4638 
    9280    272.53474    35.192652   -12335.656    1348.5863    1348.5863 
    9290    271.53234    35.063212   -12335.526    1359.3028    1359.3028 
    9300    295.66134    38.179011   -12338.646    1399.0845    1399.0845 
    9310    306.62429    39.594665    -12340.06    1522.4766    1522.4766 
    9320    310.91554    40.148798   -12340.612    1653.3844    1653.3844 
    9330    327.74682    42.322236   -12342.789    1688.2252    1688.2252 
    9340    323.67817    41.796848   -12342.264    1690.3432    1690.3432 
    9350    301.04268    38.873908   -12339.336    1658.6518    1658.6518 
    9360    304.25444    39.288645   -12339.754    1503.0185    1503.0185 
    9370    306.74927    39.610805    -12340.08    1344.6469    1344.6469 
    9380    273.25332    35.285444   -12335.748    1339.7505    1339.7505 
    9390    260.80224    33.677624   -12334.138    1374.2049    1374.2049 
    9400    289.65664    37.403619   -12337.871    1382.4097    1382.4097 
    9410    299.62185    38.690435   -12339.157    1491.8367    1491.8367 
    9420    299.87694    38.723375   -12339.185    1620.2473    1620.2473 
    9430    327.12579    42.242042    -12342.71    1594.4401    1594.4401 
    9440    324.57457    41.912601   -12342.382    1549.8231    1549.8231 
    9450     282.9485    36.537391   -12336.998    1575.6512    1575.6512 
    9460    286.41124    36.984537   -12337.447    1512.2437    1512.2437 
    9470    318.77308     41.16345   -12341.634     1424.826     1424.826 
    9480    299.77434    38.710125   -12339.176    1520.2686    1520.2686 
    9490    277.74181    35.865045   -12336.324    1624.1096    1624.1096 
    9500      309.745    39.997645   -12340.465    1527.0157    1527.0157 
    9510    320.76078    41.420123    -12341.89    1426.7847    1426.7847 
    9520    285.06244    36.810365   -12337.272    1439.8485    1439.8485 
    9530     277.6977     35.85935   -12336.322    1415.6435    1415.6435 
    9540    297.00876    38.353004   -12338.821    1388.8342    1388.8342 
    9550    290.69039    37.537107   -12338.002    1491.8811    1491.8811 
    9560     289.6281    37.399933   -12337.862    1600.4909    1600.4909 
    9570    317.71901    41.027336   -12341.494    1608.5063    1608.5063 
    9580    326.19187    42.121445   -12342.589    1601.1621    1601.1621 
    9590    305.17171    39.407093   -12339.871    1572.3403    1572.3403 
    9600     293.3168    37.876258    -12338.34    1478.6876    1478.6876 
    9610    298.20579    38.507577   -12338.973    1415.6572    1415.6572 
    9620    301.82998    38.975572   -12339.441    1440.2975    1440.2975 
    9630    297.90499    38.468735   -12338.934    1493.5031    1493.5031 
    9640     292.3132    37.746662   -12338.211    1550.1884    1550.1884 
    9650    296.64251     38.30571    -12338.77    1596.3522    1596.3522 
    9660    311.63475    40.241671   -12340.708    1581.6114    1581.6114 
    9670    316.71791    40.898064   -12341.365    1541.1433    1541.1433 
    9680    306.60924    39.592723   -12340.058    1524.6885    1524.6885 
    9690    295.50394    38.158686   -12338.624    1483.0684    1483.0684 
    9700     285.6174    36.882028   -12337.347    1412.9318    1412.9318 
    9710    279.28956    36.064908   -12336.529    1389.1476    1389.1476 
    9720    282.02742     36.41845   -12336.882    1419.9897    1419.9897 
    9730     297.0701    38.360924   -12338.826    1427.8129    1427.8129 
    9740    306.59534    39.590927   -12340.058    1449.8199    1449.8199 
    9750    296.22405    38.251674   -12338.716     1552.095     1552.095 
    9760    294.88123    38.078275    -12338.54    1622.0746    1622.0746 
    9770    321.29772    41.489459   -12341.957    1577.8427    1577.8427 
    9780    325.50656    42.032951   -12342.502    1560.3552    1560.3552 
    9790    295.36653    38.140942   -12338.603     1575.529     1575.529 
    9800    290.42123    37.502351   -12337.965    1474.5363    1474.5363 
    9810    303.37888    39.175583   -12339.644    1372.3613    1372.3613 
    9820    283.84947    36.653733   -12337.118    1440.4416    1440.4416 
    9830    275.75098    35.607968   -12336.069    1516.2133    1516.2133 
    9840    309.42682    39.956559   -12340.425    1490.6581    1490.6581 
    9850    313.72462    40.511538   -12340.979    1531.8179    1531.8179 
    9860     295.9927      38.2218   -12338.683    1590.3501    1590.3501 
    9870    311.13141    40.176675   -12340.643    1542.5885    1542.5885 
    9880     317.7127    41.026522   -12341.495    1521.1261    1521.1261 
    9890    289.57556    37.393148   -12337.855    1567.2482    1567.2482 
    9900    294.11351    37.979137   -12338.442    1502.5873    1502.5873 
    9910    317.54371      41.0047   -12341.475    1420.1315    1420.1315 
    9920    292.78144    37.807126   -12338.271    1503.0579    1503.0579 
    9930    277.13594    35.786809   -12336.247    1540.0695    1540.0695 
    9940    303.24968    39.158899   -12339.627     1434.341     1434.341 
    9950    301.68183    38.956442   -12339.423    1428.5913    1428.5913 
    9960    285.89486    36.917856   -12337.379    1523.6038    1523.6038 
    9970    308.62041    39.852427   -12340.319    1550.6297    1550.6297 
    9980    316.89451    40.920869   -12341.389    1592.8378    1592.8378 
    9990     294.9935    38.092772   -12338.554    1629.3058    1629.3058 
   10000    304.53736    39.325179    -12339.79    1487.8511    1487.8511 
Loop time of 11.2016 on 1 procs for 10000 steps with 1000 atoms

Performance: 38.566 ns/day, 0.622 hours/ns, 892.728 timesteps/s
99.8% CPU use with 1 MPI tasks x no OpenMP threads

MPI task timing breakdown:
Section |  min time  |  avg time  |  max time  |%varavg| %total
---------------------------------------------------------------
Pair    | 9.1348     | 9.1348     | 9.1348     |   0.0 | 81.55
Neigh   | 1.3339     | 1.3339     | 1.3339     |   0.0 | 11.91
Comm    | 0.08544    | 0.08544    | 0.08544    |   0.0 |  0.76
Output  | 0.5694     | 0.5694     | 0.5694     |   0.0 |  5.08
Modify  | 0.058016   | 0.058016   | 0.058016   |   0.0 |  0.52
Other   |            | 0.02007    |            |       |  0.18

Nlocal:    1000 ave 1000 max 1000 min
Histogram: 1 0 0 0 0 0 0 0 0 0
Nghost:    2055 ave 2055 max 2055 min
Histogram: 1 0 0 0 0 0 0 0 0 0
Neighs:    0 ave 0 max 0 min
Histogram: 1 0 0 0 0 0 0 0 0 0
FullNghs:  33708 ave 33708 max 33708 min
Histogram: 1 0 0 0 0 0 0 0 0 0

Total # of neighbors = 33708
Ave neighs/atom = 33.708
Neighbor list builds = 1000
Dangerous builds not checked

Total wall time: 0:00:11
