
# Define the lattice
variable	lattice_constant equal 6.18
lattice		diamond ${lattice_constant}
lattice		diamond 6.18
Lattice spacing in x,y,z = 6.18 6.18 6.18

# Define region
# multiples of lattice spacing
region 		simbox block 0 5 0 5 0 5

# Create Atoms
create_box 	1 simbox
Created orthogonal box = (0 0 0) to (30.9 30.9 30.9)
  1 by 1 by 1 MPI processor grid
create_atoms 	1 box
Created 1000 atoms
  Time spent = 0.000353098 secs
mass		1 18.015

velocity	all create 600.0 97287

# Define Interatomic Potential
pair_style	sw
pair_coeff	* * mW.sw mW
Reading potential file mW.sw with DATE: 2019-02-27

neighbor 	2.0 bin
neigh_modify	delay 10 check no

# Pressure computations
compute		total_press all pressure thermo_temp
compute		peratom all stress/atom NULL
compute		p all reduce sum c_peratom[1] c_peratom[2] c_peratom[3]
variable	press equal -(c_p[1]+c_p[2]+c_p[3])/(3*vol)

# Density computations
variable	total_mass equal mass(all)
variable	v equal vol
print 		${total_mass}
print 		18014.9999999997
18014.9999999997
print		$v
print		29503.629
29503.629

variable 	density equal v_total_mass/(v_v*18.015)
print 		${density}
print 		0.0338941355315979
0.0338941355315979


# Run equilibration
thermo_style	custom step temp ke pe c_total_press v_press
thermo		10
dump		1 all atom 10 ${simname}.dump
dump		1 all atom 10 mW_liquid_6.18.dump

fix 		1 all nve
#temp 300.0 300.0 100.0 iso 0.0 0.0 1000.0
timestep	0.0005
run		10000
Neighbor list info ...
  update every 1 steps, delay 10 steps, check no
  max neighbors/atom: 2000, page size: 100000
  master list distance cutoff = 6.3065
  ghost atom cutoff = 6.3065
  binsize = 3.15325, bins = 10 10 10
  1 neighbor lists, perpetual/occasional/extra = 1 0 0
  (1) pair sw, perpetual
      attributes: full, newton on
      pair build: full/bin/atomonly
      stencil: full/bin/3d
      bin: standard
Per MPI rank memory allocation (min/avg/max) = 4.438 | 4.438 | 4.438 Mbytes
Step Temp KinEng PotEng c_total_press v_press 
       0          600    77.478531   -12375.961    23733.436    23733.436 
      10    354.08633     45.72348   -12344.145    24114.981    24114.981 
      20    175.52862    22.666166   -12321.061     23984.61     23984.61 
      30     329.2138    42.511669   -12340.968    23030.455    23030.455 
      40    263.50862    34.027102   -12332.464    22957.296    22957.296 
      50    140.94832    18.200782   -12316.599    23323.237    23323.237 
      60    308.65638    39.857072   -12338.302    23084.334    23084.334 
      70     353.3729    45.631355   -12344.079    23272.876    23272.876 
      80    244.57255     31.58187   -12329.987    23890.298    23890.298 
      90    355.12986    45.858234   -12344.295    23751.683    23751.683 
     100    401.22563     51.81062   -12350.263    23525.381    23525.381 
     110    240.79859    31.094535   -12329.504    23737.747    23737.747 
     120    262.82992     33.93946   -12332.363    23505.545    23505.545 
     130    351.96984    45.450176   -12343.901    23199.038    23199.038 
     140    260.28281    33.610549    -12332.03    23504.836    23504.836 
     150    260.73509    33.668953   -12332.089    23571.006    23571.006 
     160    353.80431    45.687063   -12344.136     23290.49     23290.49 
     170    284.21311     36.70069   -12335.127    23490.638    23490.638 
     180    246.80159    31.869707   -12330.284    23710.163    23710.163 
     190    352.92109    45.573013   -12344.016    23464.996    23464.996 
     200    339.16467    43.796634   -12342.234    23446.442    23446.442 
     210     253.0217    32.672916   -12331.089    23655.496    23655.496 
     220    295.69408    38.183238   -12336.615    23509.615    23509.615 
     230     327.4431    42.283017   -12340.722    23374.705    23374.705 
     240     276.4688    35.700661   -12334.124    23531.083    23531.083 
     250     288.1008    37.202711   -12335.631    23518.456    23518.456 
     260    318.54176     41.13358   -12339.571    23409.251    23409.251 
     270    284.37124     36.72111   -12335.147    23551.601    23551.601 
     280    292.99635    37.834878    -12336.26    23622.787    23622.787 
     290    344.35826    44.467286   -12342.906    23482.766    23482.766 
     300    317.81577    41.039831   -12339.472    23513.737    23513.737 
     310    269.63111    34.817703    -12333.24    23642.384    23642.384 
     320    295.91743    38.212079   -12336.643    23561.167    23561.167 
     330    319.96595    41.317486   -12339.754    23454.243    23454.243 
     340    287.31779    37.101601   -12335.529    23476.977    23476.977 
     350    275.45935     35.57031   -12333.997    23405.842    23405.842 
     360    295.41905    38.147724   -12336.581    23284.222    23284.222 
     370     290.7222    37.541215   -12335.972    23353.252    23353.252 
     380    283.14135    36.562293   -12334.989    23488.265    23488.265 
     390    305.32386     39.42674   -12337.858    23534.357    23534.357 
     400    322.31622    41.620979   -12340.053    23631.606    23631.606 
     410    324.05291    41.845239   -12340.275    23757.384    23757.384 
     420    327.80091    42.329222   -12340.761    23720.252    23720.252 
     430    313.66611    40.503982   -12338.935    23585.875    23585.875 
     440    286.66063     37.01674   -12335.445    23471.534    23471.534 
     450    273.48564    35.315443   -12333.745    23359.546    23359.546 
     460     267.6319    34.559545   -12332.989    23305.411    23305.411 
     470    275.37351    35.559225   -12333.987    23342.285    23342.285 
     480    304.09626    39.268219   -12337.701    23387.178    23387.178 
     490    306.96148    39.638208    -12338.07    23486.051    23486.051 
     500    294.46765    38.024868   -12336.451    23644.057    23644.057 
     510    319.75429    41.290154   -12339.721    23692.475    23692.475 
     520    334.79845     43.23282   -12341.668    23626.373    23626.373 
     530    299.33466    38.653349   -12337.082    23572.003    23572.003 
     540     276.6103    35.718933   -12334.146    23515.831    23515.831 
     550    292.02723    37.709735   -12336.141    23439.219    23439.219 
     560    303.45936    39.185975   -12337.617    23417.534    23417.534 
     570    302.94452    39.119494    -12337.55    23447.551    23447.551 
     580    301.51405    38.934775   -12337.366    23465.652    23465.652 
     590    294.92669    38.084145   -12336.514    23486.034    23486.034 
     600    294.12367     37.98045    -12336.41    23546.188    23546.188 
     610    304.55198    39.327067   -12337.758    23611.956    23611.956 
     620     312.6643    40.374617   -12338.805    23611.943    23611.943 
     630    315.48304    40.738604    -12339.17    23551.347    23551.347 
     640     305.4149    39.438497    -12337.87    23518.508    23518.508 
     650    284.47363    36.734332   -12335.162    23519.541    23519.541 
     660    291.84874    37.686686   -12336.116    23449.992    23449.992 
     670    308.30269      39.8114   -12338.246    23384.094    23384.094 
     680    288.53472    37.258744   -12335.689     23433.83     23433.83 
     690    274.64227      35.4648   -12333.891    23491.236    23491.236 
     700    298.64548    38.564355   -12336.996    23496.863    23496.863 
     710    308.87079    39.884759   -12338.317    23534.152    23534.152 
     720    298.20171     38.50705   -12336.935    23555.464    23555.464 
     730    306.83277    39.621586   -12338.053    23497.404    23497.404 
     740    308.43748    39.828804   -12338.261    23486.011    23486.011 
     750    290.08293    37.458666   -12335.886    23540.041    23540.041 
     760    294.51096    38.030461    -12336.46     23530.35     23530.35 
     770    308.21361    39.799896   -12338.233    23494.368    23494.368 
     780       299.87    38.722479   -12337.152     23500.61     23500.61 
     790    301.58951     38.94452   -12337.374    23471.517    23471.517 
     800    305.87323    39.497681   -12337.931     23474.65     23474.65 
     810    283.41568    36.597718   -12335.025    23596.245    23596.245 
     820    291.57158    37.650896   -12336.077    23649.633    23649.633 
     830    335.41478    43.312407   -12341.749    23578.202    23578.202 
     840    321.82734    41.557849   -12339.991     23569.46     23569.46 
     850    281.98217    36.412608   -12334.837    23540.657    23540.657 
     860    292.14809    37.725342   -12336.157    23388.743    23388.743 
     870    297.39666    38.403094   -12336.836    23321.377    23321.377 
     880    276.71457    35.732397   -12334.159    23377.306    23377.306 
     890    286.89573    37.047099   -12335.477    23406.638    23406.638 
     900    296.39345    38.273548   -12336.707    23498.804    23498.804 
     910    285.47841    36.864079   -12335.289    23651.698    23651.698 
     920    321.82943    41.558119   -12339.989    23619.374    23619.374 
     930    347.33845    44.852122   -12343.291    23540.651    23540.651 
     940    295.16001    38.114274   -12336.541    23608.658    23608.658 
     950    277.62644    35.850148   -12334.274    23581.567    23581.567 
     960    316.58252    40.880581   -12339.317     23452.31     23452.31 
     970     304.2131    39.283306   -12337.715    23484.915    23484.915 
     980    280.85244    36.266724   -12334.692     23516.39     23516.39 
     990    298.93543    38.601797   -12337.035     23407.31     23407.31 
    1000    288.99156    37.317736   -12335.749    23395.829    23395.829 
    1010    273.51321    35.319003   -12333.744    23468.283    23468.283 
    1020    308.25317    39.805005   -12338.238    23465.956    23465.956 
    1030    317.90844    41.051798   -12339.485    23534.785    23534.785 
    1040    300.48432    38.801806   -12337.228    23646.382    23646.382 
    1050    315.75957    40.774312   -12339.207    23624.172    23624.172 
    1060    310.28277    40.067089   -12338.499    23606.168    23606.168 
    1070    291.61614    37.656651   -12336.082    23596.643    23596.643 
    1080    318.73751    41.158856   -12339.592    23435.901    23435.901 
    1090    312.36902    40.336488   -12338.774    23305.183    23305.183 
    1100    242.49138    31.313126   -12329.736    23374.783    23374.783 
    1110    248.70684    32.115735   -12330.539    23411.363    23411.363 
    1120    320.47468    41.383179   -12339.821    23408.399    23408.399 
    1130    325.05719    41.974923   -12340.407     23560.43     23560.43 
    1140    306.63491    39.596038   -12338.023    23667.521    23667.521 
    1150    318.51205    41.129743   -12339.563    23603.723    23603.723 
    1160    306.91714    39.632481   -12338.064    23562.355    23562.355 
    1170    287.90077    37.176881   -12335.604    23549.261    23549.261 
    1180     295.2156    38.121452   -12336.554     23465.87     23465.87 
    1190    288.20508    37.216177   -12335.647    23419.091    23419.091 
    1200    277.40795    35.821933   -12334.248      23461.1      23461.1 
    1210     307.0409    39.648463   -12338.079     23519.34     23519.34 
    1220    338.78756    43.747938   -12342.183    23586.628    23586.628 
    1230    325.29239    42.005294   -12340.437    23654.111    23654.111 
    1240    296.50288    38.287679   -12336.716    23638.639    23638.639 
    1250    290.45404    37.506587   -12335.935    23530.117    23530.117 
    1260    300.08634    38.750415   -12337.182    23419.917    23419.917 
    1270     295.8652    38.205336   -12336.638    23379.641    23379.641 
    1280    273.26991    35.287586   -12333.716    23385.599    23385.599 
    1290    272.16008    35.144272   -12333.572    23368.985    23368.985 
    1300    297.98076    38.478519    -12336.91    23385.148    23385.148 
    1310    309.47333    39.962565   -12338.395    23509.621    23509.621 
    1320    301.42906    38.923801   -12337.352    23646.478    23646.478 
    1330    309.85425    40.011753   -12338.442    23636.639    23636.639 
    1340    317.00691    40.935383   -12339.369    23547.285    23547.285 
    1350    293.15495    37.855357   -12336.284    23524.265    23524.265 
    1360    283.31532    36.584758   -12335.012    23512.345    23512.345 
    1370    308.23354     39.80247   -12338.234    23473.001    23473.001 
    1380    320.54786    41.392629   -12339.826    23486.363    23486.363 
    1390    299.81715    38.715653   -12337.144    23577.737    23577.737 
    1400    295.58444    38.169081   -12336.597     23618.63     23618.63 
    1410    314.92189    40.666142     -12339.1    23544.193    23544.193 
    1420    302.41517    39.051138   -12337.484    23448.202    23448.202 
    1430    261.86867    33.815333   -12332.242    23396.337    23396.337 
    1440    258.88566    33.430135   -12331.856    23361.439    23361.439 
    1450    301.79802    38.971445   -12337.403    23357.661    23357.661 
    1460    328.92271    42.474081   -12340.908    23469.265    23469.265 
    1470    315.54314    40.746364   -12339.176    23666.243    23666.243 
    1480     309.1567    39.921678    -12338.35     23742.11     23742.11 
    1490    322.82994    41.687316    -12340.12     23630.23     23630.23 
    1500    313.37105    40.465881   -12338.899     23489.87     23489.87 
    1510    277.35897    35.815609   -12334.243     23421.93     23421.93 
    1520    265.65896    34.304776   -12332.732    23383.046    23383.046 
    1530    285.33228    36.845209   -12335.277    23389.021    23389.021 
    1540     299.6216    38.690402    -12337.12    23492.141    23492.141 
    1550    318.25671     41.09677   -12339.527    23582.423    23582.423 
    1560    334.33407    43.172854   -12341.607    23599.824    23599.824 
    1570    313.28391    40.454629   -12338.887    23590.478    23590.478 
    1580    275.04289    35.516531   -12333.943    23551.735    23551.735 
    1590    274.15614    35.402025    -12333.83    23449.619    23449.619 
    1600    295.44546    38.151134   -12336.583    23362.982    23362.982 
    1610    300.80277    38.842927   -12337.274    23359.582    23359.582 
    1620    293.99543     37.96389   -12336.394    23430.133    23430.133 
    1630    291.27305    37.612347    -12336.04    23545.453    23545.453 
    1640    310.51957    40.097667   -12338.528    23621.057    23621.057 
    1650    332.23895    42.902309   -12341.336    23647.022    23647.022 
    1660     322.3443    41.624605   -12340.056    23659.901    23659.901 
    1670    302.23541    39.027925   -12337.457    23593.482    23593.482 
    1680    290.35419    37.493694   -12335.925    23453.423    23453.423 
    1690     271.6032    35.072361   -12333.501    23350.628    23350.628 
    1700    267.15834    34.498393   -12332.926    23282.385    23282.385 
    1710    288.16014    37.210373   -12335.643     23247.45     23247.45 
    1720    284.62739    36.754187   -12335.186    23368.984    23368.984 
    1730    273.29874    35.291308   -12333.715    23583.693    23583.693 
    1740    326.18223      42.1202   -12340.551    23654.503    23654.503 
    1750    370.29319    47.816287   -12346.256    23659.509    23659.509 
    1760    324.99667    41.967107   -12340.397    23734.981    23734.981 
    1770    282.41796    36.468881   -12334.893    23710.671    23710.671 
    1780    301.59929    38.945783   -12337.377    23543.414    23543.414 
    1790    314.81129    40.651861   -12339.085    23427.668    23427.668 
    1800    298.83334    38.588614   -12337.019    23385.615    23385.615 
    1810    282.42172    36.469366   -12334.899    23353.644    23353.644 
    1820    271.20924     35.02149    -12333.45    23375.042    23375.042 
    1830    279.44735    36.085284   -12334.514    23431.146    23431.146 
    1840    300.85666    38.849887   -12337.282    23489.308    23489.308 
    1850    308.06089    39.780175    -12338.21    23558.527    23558.527 
    1860    315.27651    40.711935   -12339.142    23574.897    23574.897 
    1870    319.05905    41.200377   -12339.633    23551.807    23551.807 
    1880    297.49204     38.41541   -12336.844    23567.228    23567.228 
    1890     293.1688    37.857146   -12336.285    23517.457    23517.457 
    1900    305.99596    39.513529   -12337.948    23410.456    23410.456 
    1910    280.52745    36.224758   -12334.655    23417.794    23417.794 
    1920    260.31241    33.614372   -12332.039    23459.197    23459.197 
    1930    297.08684    38.363087   -12336.796    23404.951    23404.951 
    1940    314.25668    40.580243   -12339.014      23446.1      23446.1 
    1950    297.68894    38.440836   -12336.867    23599.339    23599.339 
    1960    318.18604    41.087645   -12339.518    23623.056    23623.056 
    1970    334.19698    43.155152   -12341.591    23583.096    23583.096 
    1980    297.91554    38.470097   -12336.898    23627.906    23627.906 
    1990    286.92535    37.050925   -12335.477    23581.661    23581.661 
    2000    310.93868    40.151787   -12338.587    23412.683    23412.683 
    2010    294.03173    37.968577     -12336.4    23356.752    23356.752 
    2020    267.76113    34.576232   -12333.002    23408.647    23408.647 
    2030    287.46271    37.120313    -12335.55    23447.384    23447.384 
    2040    317.35306    40.980081   -12339.413    23505.839    23505.839 
    2050    317.42997    40.990013    -12339.42    23601.903    23601.903 
    2060    313.54571    40.488435   -12338.918    23615.825    23615.825 
    2070    310.62671    40.111502   -12338.543    23556.021    23556.021 
    2080    297.73996    38.447425   -12336.877     23494.87     23494.87 
    2090    288.46374    37.249579   -12335.679    23428.508    23428.508 
    2100    283.87592    36.657149   -12335.088    23392.161    23392.161 
    2110     278.7244    35.991928   -12334.421    23422.593    23422.593 
    2120    287.76386    37.159202   -12335.588    23458.734    23458.734 
    2130    311.83434    40.267444     -12338.7    23464.201    23464.201 
    2140    313.00603    40.418746   -12338.851    23517.291    23517.291 
    2150    294.08338    37.975247   -12336.403    23586.761    23586.761 
    2160    302.78244    39.098564   -12337.528    23569.956    23569.956 
    2170     321.7642    41.549696   -12339.983    23555.083    23555.083 
    2180    311.82118    40.265745   -12338.696    23599.401    23599.401 
    2190    300.55017    38.810309   -12337.239    23566.016    23566.016 
    2200    299.30205    38.649138   -12337.082      23457.1      23457.1 
    2210    277.73817    35.864576   -12334.294    23418.661    23418.661 
    2220    269.67316    34.823133   -12333.249    23394.367    23394.367 
    2230    300.00875    38.740396   -12337.174    23338.898    23338.898 
    2240    303.15572    39.146766   -12337.579    23417.745    23417.745 
    2250    285.15263    36.822011   -12335.247    23575.978    23575.978 
    2260    313.88868    40.532724   -12338.964    23603.171    23603.171 
    2270    332.96373    42.995901   -12341.432    23596.261    23596.261 
    2280    296.16453    38.243988    -12336.67    23635.038    23635.038 
    2290    292.86479    37.817889   -12336.245    23549.868    23549.868 
    2300     319.2615     41.22652   -12339.662    23422.408    23422.408 
    2310    295.77815    38.194094   -12336.624    23439.665    23439.665 
    2320    276.36024    35.686642   -12334.112    23452.385    23452.385 
    2330    298.64936    38.564856   -12336.998    23402.308    23402.308 
    2340    298.41176    38.534174   -12336.965     23443.36     23443.36 
    2350    288.53753    37.259106   -12335.686    23510.781    23510.781 
    2360     307.3191    39.684388   -12338.117    23512.088    23512.088 
    2370    304.81686    39.361271   -12337.792    23567.147    23567.147 
    2380    302.82673    39.104284   -12337.531    23612.042    23612.042 
    2390    329.59638    42.561072   -12340.997    23570.585    23570.585 
    2400    306.53108    39.582629   -12338.014    23596.388    23596.388 
    2410    275.41287    35.564308   -12333.987    23572.221    23572.221 
    2420    311.35799    40.205933    -12338.64    23377.332    23377.332 
    2430     305.6597    39.470107   -12337.906    23331.036    23331.036 
    2440    250.91811    32.401278   -12330.821    23464.418    23464.418 
    2450    288.85878     37.30059    -12335.73    23446.757    23446.757 
    2460    332.79655    42.974313   -12341.414    23463.091    23463.091 
    2470    289.22552    37.347948   -12335.772    23640.909    23640.909 
    2480    300.68722    38.828007   -12337.255    23597.756    23597.756 
    2490    336.87908    43.501493   -12341.943    23454.583    23454.583 
    2500    274.24594    35.413622   -12333.839    23508.528    23508.528 
    2510    254.58532    32.874827   -12331.296    23446.565    23446.565 
    2520    317.07359    40.943994   -12339.384     23282.49     23282.49 
    2530    299.19492    38.635304   -12337.065    23423.017    23423.017 
    2540    280.91779    36.275163   -12334.697    23580.931    23580.931 
    2550    336.76626    43.486925   -12341.926    23544.105    23544.105 
    2560    315.07428    40.685821   -12339.118    23668.613    23668.613 
    2570     275.1516    35.530569    -12333.95    23758.125    23758.125 
    2580    335.20547    43.285379   -12341.722    23548.624    23548.624 
    2590    338.24604    43.678011   -12342.116    23481.783    23481.783 
    2600    267.84637    34.587239   -12333.007    23580.993    23580.993 
    2610    288.55468    37.261321   -12335.692    23442.146    23442.146 
    2620    312.28413    40.325526   -12338.764    23337.344    23337.344 
    2630    267.85396    34.588219   -12333.012    23427.097    23427.097 
    2640    280.14801    36.175761   -12334.605     23374.87     23374.87 
    2650    300.08046    38.749655   -12337.187    23361.746    23361.746 
    2660    262.51347    33.898596   -12332.321    23570.863    23570.863 
    2670    300.96435    38.863792   -12337.291    23598.836    23598.836 
    2680    366.63826    47.344323   -12345.786    23540.972    23540.972 
    2690    325.04285    41.973071   -12340.401    23712.931    23712.931 
    2700    295.03171    38.097706   -12336.522    23718.768    23718.768 
    2710    318.26099    41.097324   -12339.535    23452.609    23452.609 
    2720    279.15274     36.04724   -12334.477    23370.201    23370.201 
    2730    245.62675       31.718   -12330.139    23401.716    23401.716 
    2740    293.79932    37.938566   -12336.373    23322.375    23322.375 
    2750    312.05588    40.296052    -12338.73    23392.095    23392.095 
    2760    295.63406    38.175488   -12336.602     23572.72     23572.72 
    2770    311.37781    40.208492   -12338.641    23600.934    23600.934 
    2780    309.81743    40.006999   -12338.439     23608.02     23608.02 
    2790    297.06758      38.3606   -12336.787    23637.259    23637.259 
    2800    316.98464    40.932507   -12339.366    23538.079    23538.079 
    2810    304.21759    39.283887   -12337.716    23486.719    23486.719 
    2820    277.92602    35.888833   -12334.312    23528.889    23528.889 
    2830    317.41272    40.987786   -12339.421     23425.82     23425.82 
    2840    322.51113    41.646147   -12340.085    23349.034    23349.034 
    2850    249.23355    32.183748   -12330.606      23484.3      23484.3 
    2860    255.61915    33.008327   -12331.431    23509.625    23509.625 
    2870    334.82179    43.235834   -12341.675    23402.252    23402.252 
    2880    328.45462    42.413636   -12340.847    23524.811    23524.811 
    2890    287.89342    37.175932   -12335.599     23699.22     23699.22 
    2900    310.46402    40.090494   -12338.523    23611.673    23611.673 
    2910    315.82673    40.782985   -12339.218    23483.472    23483.472 
    2920     278.9842    36.025476   -12334.451    23472.615    23472.615 
    2930    288.37446    37.238049   -12335.668     23401.66     23401.66 
    2940    304.96689    39.380644   -12337.816    23365.947    23365.947 
    2950    278.44919     35.95639   -12334.383    23496.534    23496.534 
    2960    288.28401     37.22637   -12335.653    23585.008    23585.008 
    2970    332.71749    42.964104     -12341.4    23574.799    23574.799 
    2980    324.29173    41.876079   -12340.308    23622.507    23622.507 
    2990    295.97786    38.219882   -12336.646    23641.466    23641.466 
    3000    303.27376    39.162009   -12337.593    23536.379    23536.379 
    3010    304.28567    39.292677   -12337.724    23453.407    23453.407 
    3020    294.00665    37.965339   -12336.394    23424.974    23424.974 
    3030    296.09124    38.234524   -12336.667     23392.72     23392.72 
    3040    281.84962    36.395491   -12334.826    23419.738    23419.738 
    3050     272.6828    35.211771   -12333.638    23470.084    23470.084 
    3060    303.89113     39.24173   -12337.675    23465.908    23465.908 
    3070    311.36767    40.207182    -12338.64    23525.335    23525.335 
    3080    293.46989    37.896027   -12336.322    23607.808    23607.808 
    3090    315.83872    40.784533   -12339.216    23544.329    23544.329 
    3100     325.5098    42.033368   -12340.469    23464.083    23464.083 
    3110    286.41932     36.98558   -12335.412    23473.432    23473.432 
    3120    281.43737    36.342257   -12334.771    23434.427    23434.427 
    3130    291.50635    37.642473   -12336.077    23432.306    23432.306 
    3140    269.64757    34.819829   -12333.245    23553.017    23553.017 
    3150    292.99791     37.83508   -12336.261     23594.26     23594.26 
    3160    351.74211    45.420769   -12343.858     23557.52     23557.52 
    3170    340.67468    43.991623   -12342.425    23612.808    23612.808 
    3180    294.51499    38.030981   -12336.456    23632.899    23632.899 
    3190    290.16748    37.469583     -12335.9     23507.02     23507.02 
    3200    287.08965    37.072141   -12335.503    23429.767    23429.767 
    3210    280.64532    36.239979   -12334.668    23420.417    23420.417 
    3220    292.79501    37.808879   -12336.241    23403.201    23403.201 
    3230    289.24316    37.350226   -12335.781     23460.73     23460.73 
    3240    287.27418    37.095969   -12335.523    23534.978    23534.978 
    3250    318.87271    41.176315   -12339.608    23524.558    23524.558 
    3260    333.29659    43.038884   -12341.473    23532.014    23532.014 
    3270    306.02106     39.51677   -12337.946    23580.029    23580.029 
    3280    289.85935    37.429795   -12335.859    23538.417    23538.417 
    3290    287.01002    37.061858   -12335.493    23482.522    23482.522 
    3300    285.04262    36.807805   -12335.235    23496.585    23496.585 
    3310    308.43789    39.828858   -12338.261    23468.382    23468.382 
    3320    315.54401    40.746478   -12339.181    23454.465    23454.465 
    3330    279.25221    36.060085   -12334.487    23546.832    23546.832 
    3340    279.95943    36.151409   -12334.577    23564.403    23564.403 
    3350    327.40555    42.278169   -12340.714    23462.666    23462.666 
    3360    323.71308    41.801356   -12340.236    23476.674    23476.674 
    3370    277.39521     35.82029   -12334.245    23577.574    23577.574 
    3380    286.32336    36.973189   -12335.402    23514.715    23514.715 
    3390    314.46093    40.606618   -12339.042    23421.203    23421.203 
    3400     295.6018    38.171322   -12336.601    23483.519    23483.519 
    3410    285.50388    36.867369   -12335.294    23535.362    23535.362 
    3420    306.93637    39.634965   -12338.069    23509.889    23509.889 
    3430    299.18085    38.633488   -12337.064    23569.265    23569.265 
    3440    293.24476    37.866956   -12336.293    23619.166    23619.166 
    3450    327.86218    42.337134   -12340.771    23523.746    23523.746 
    3460    323.53181    41.777949   -12340.213    23451.673    23451.673 
    3470    271.54369    35.064677    -12333.49    23447.846    23447.846 
    3480    262.79802    33.935341   -12332.363     23381.59     23381.59 
    3490    286.17921    36.954575   -12335.387    23359.875    23359.875 
    3500    290.01265     37.44959   -12335.878    23490.709    23490.709 
    3510    311.51523    40.226238   -12338.656    23609.254    23609.254 
    3520    336.71528    43.480342   -12341.915    23688.979    23688.979 
    3530    324.73417    41.933211   -12340.362    23753.901    23753.901 
    3540    319.68685    41.281446   -12339.711    23637.747    23637.747 
    3550    316.37696    40.854037   -12339.289    23413.772    23413.772 
    3560    270.13919    34.883313   -12333.312    23351.432    23351.432 
    3570    246.82019    31.872109   -12330.296     23392.04     23392.04 
    3580    288.66591    37.275685   -12335.708    23395.929    23395.929 
    3590      312.649    40.372642   -12338.806     23480.87     23480.87 
    3600     310.2145    40.058273   -12338.486    23606.688    23606.688 
    3610    326.62097    42.176855    -12340.61    23611.182    23611.182 
    3620    316.40384    40.857508    -12339.29    23582.751    23582.751 
    3630    284.07386    36.682709   -12335.109    23554.411    23554.411 
    3640    286.06476    36.939796    -12335.37      23454.1      23454.1 
    3650    292.52628    37.774177   -12336.207    23398.915    23398.915 
    3660    278.98343    36.025377   -12334.453    23470.466    23470.466 
    3670    295.17704    38.116473   -12336.545    23493.641    23493.641 
    3680    323.46649    41.769515   -12340.205    23427.389    23427.389 
    3690     299.3132    38.650579   -12337.082    23445.938    23445.938 
    3700    264.94121    34.212093   -12332.636    23529.206    23529.206 
    3710    290.45216    37.506344   -12335.935    23535.596    23535.596 
    3720    331.19753    42.767831   -12341.203    23545.189    23545.189 
    3730    319.63049    41.274167   -12339.705    23653.258    23653.258 
    3740    298.18411    38.504778   -12336.931     23674.43     23674.43 
    3750    314.74825    40.643719   -12339.076    23518.369    23518.369 
    3760    314.31401    40.587646   -12339.022    23425.525    23425.525 
    3770    273.67108    35.339389   -12333.766    23470.105    23470.105 
    3780    269.95864    34.859998   -12333.287    23444.259    23444.259 
    3790    303.19515    39.151858   -12337.586     23398.64     23398.64 
    3800    304.51374    39.322129   -12337.753     23509.34     23509.34 
    3810    305.32797     39.42727   -12337.854    23625.048    23625.048 
    3820    333.09164    43.012419   -12341.447    23619.648    23619.648 
    3830    322.27913    41.616189   -12340.049    23619.818    23619.818 
    3840    290.82244    37.554159   -12335.981    23565.062    23565.062 
    3850    287.72956    37.154773   -12335.587    23424.266    23424.266 
    3860    274.21696    35.409879    -12333.84    23404.841    23404.841 
    3870    264.95897    34.214386   -12332.639    23446.733    23446.733 
    3880    304.55172    39.327033   -12337.761    23368.108    23368.108 
    3890    311.41526    40.213329   -12338.649    23385.947    23385.947 
    3900    275.64671    35.594504   -12334.018    23551.568    23551.568 
    3910    305.50324    39.449903   -12337.879    23572.397    23572.397 
    3920    343.74536    44.388143   -12342.826    23566.271    23566.271 
    3930    307.03095    39.647178   -12338.075    23687.313    23687.313 
    3940    289.08066    37.329241   -12335.754    23658.598    23658.598 
    3950    320.88903    41.436685   -12339.873    23467.408    23467.408 
    3960    303.86157    39.237913    -12337.67    23445.331    23445.331 
    3970    270.94565    34.987451   -12333.412    23473.954    23473.954 
    3980    287.19307    37.085495   -12335.518    23371.921    23371.921 
    3990    288.42168    37.244146   -12335.677    23388.086    23388.086 
    4000    273.64024    35.335406    -12333.76    23529.275    23529.275 
    4010    310.18235    40.054121   -12338.486    23533.256    23533.256 
    4020    334.91523      43.2479   -12341.684    23535.225    23535.225 
    4030    302.19672     39.02293    -12337.45    23647.599    23647.599 
    4040    297.29599    38.390094   -12336.818     23615.26     23615.26 
    4050    319.47549    41.254153   -12339.689     23481.53     23481.53 
    4060     298.1071    38.494834   -12336.926    23494.595    23494.595 
    4070    270.51627    34.932006   -12333.357    23543.078    23543.078 
    4080     296.2046    38.249162    -12336.68    23473.226    23473.226 
    4090    317.90595    41.051476   -12339.486    23454.175    23454.175 
    4100    300.82309    38.845552   -12337.275    23515.088    23515.088 
    4110    292.34229    37.750419   -12336.179    23513.008    23513.008 
    4120    298.27591    38.516632   -12336.948    23517.628    23517.628 
    4130    299.60055    38.687684   -12337.117    23580.099    23580.099 
    4140    308.62384     39.85287   -12338.283    23577.674    23577.674 
    4150    314.48932    40.610285   -12339.043    23530.523    23530.523 
    4160    294.84461    38.073545   -12336.502    23533.351    23533.351 
    4170    290.40147    37.499799   -12335.928     23472.34     23472.34 
    4180    304.40709    39.308357   -12337.742    23364.152    23364.152 
    4190     286.4055    36.983795   -12335.414    23396.804    23396.804 
    4200    272.46425     35.18355   -12333.609    23472.513    23472.513 
    4210    301.75824    38.966308   -12337.399    23487.801    23487.801 
    4220    311.93715     40.28072   -12338.713    23622.294    23622.294 
    4230    302.11958    39.012969   -12337.438    23778.965    23778.965 
    4240     335.1444    43.277493    -12341.71    23653.854    23653.854 
    4250    342.02032    44.165386   -12342.605    23442.614    23442.614 
    4260    261.93283    33.823618    -12332.25    23437.038    23437.038 
    4270    226.98061    29.310207   -12327.731    23402.412    23402.412 
    4280    291.89131    37.692184   -12336.127    23258.067    23258.067 
    4290    315.86493    40.787918   -12339.224    23340.013    23340.013 
    4300    286.70606    37.022608   -12335.447     23571.84     23571.84 
    4310    312.94515    40.410884    -12338.84    23627.637    23627.637 
    4320     348.6475    45.021161   -12343.459    23628.366    23628.366 
    4330    312.62462    40.369494   -12338.798    23729.633    23729.633 
    4340    288.75999    37.287833   -12335.713    23697.941    23697.941 
    4350     312.3653    40.336007   -12338.771    23534.504    23534.504 
    4360    297.82965    38.459006    -12336.89    23511.287    23511.287 
    4370    277.97044    35.894569   -12334.319    23511.556    23511.556 
    4380    313.26193     40.45179   -12338.885    23385.749    23385.749 
    4390    316.51371    40.871696   -12339.308    23361.476    23361.476 
    4400    265.81089    34.324396   -12332.749    23462.634    23462.634 
    4410    271.11084    35.008782   -12333.436    23454.131    23454.131 
    4420    305.88647    39.499391   -12337.935    23464.432    23464.432 
    4430    298.42258    38.535571   -12336.963    23599.991    23599.991 
    4440    310.37613    40.079145   -12338.508    23597.648    23597.648 
    4450    327.04606    42.231747   -12340.669    23508.624    23508.624 
    4460    284.89025    36.788131   -12335.214    23558.032    23558.032 
    4470    282.37602    36.463466   -12334.888    23529.891    23529.891 
    4480    334.00455    43.130303   -12341.569    23394.979    23394.979 
    4490    308.07858     39.78246   -12338.215    23454.105    23454.105 
    4500    260.62946    33.655313   -12332.077    23549.311    23549.311 
    4510    291.66536    37.663007   -12336.096    23460.876    23460.876 
    4520    299.77141    38.709747   -12337.144    23470.398    23470.398 
    4530    275.75293     35.60822   -12334.031    23583.994    23583.994 
    4540    319.29399    41.230715   -12339.663    23532.111    23532.111 
    4550    344.58539    44.496616   -12342.935    23526.009    23526.009 
    4560     299.4486    38.668062   -12337.093    23671.795    23671.795 
    4570    300.89956    38.855426   -12337.284    23638.943    23638.943 
    4580    321.53827    41.520521   -12339.958    23483.075    23483.075 
    4590     276.1431    35.658602   -12334.086    23458.549    23458.549 
    4600    257.03431    33.191068   -12331.616    23410.361    23410.361 
    4610    292.04302    37.711773   -12336.146    23328.654    23328.654 
    4620    295.34689    38.138405   -12336.569    23427.411    23427.411 
    4630    293.26325    37.869343   -12336.296    23577.668    23577.668 
    4640    322.47578    41.641582   -12340.074     23622.04     23622.04 
    4650    329.30648    42.523637   -12340.956    23677.096    23677.096 
    4660     318.8612    41.174829   -12339.604    23693.468    23693.468 
    4670    314.01343    40.548833   -12338.981    23560.927    23560.927 
    4680    289.73979    37.414355   -12335.844    23405.091    23405.091 
    4690    270.11686    34.880429   -12333.309    23317.228    23317.228 
    4700    269.31861     34.77735   -12333.208    23325.245    23325.245 
    4710    273.93583    35.373576   -12333.801    23411.669    23411.669 
    4720    303.91289     39.24454   -12337.675     23480.72     23480.72 
    4730    332.01311    42.873146   -12341.308    23561.013    23561.013 
    4740    311.96942    40.284887   -12338.714    23713.954    23713.954 
    4750    302.83386    39.105205   -12337.531    23767.945    23767.945 
    4760    336.33535    43.431281   -12341.866    23615.435    23615.435 
    4770    321.34401    41.495437    -12339.93    23479.676    23479.676 
    4780    263.17924    33.984568   -12332.409    23447.968    23447.968 
    4790    260.84538    33.683194    -12332.11    23386.131    23386.131 
    4800     296.8645    38.334376   -12336.768    23338.537    23338.537 
    4810    302.93416    39.118156    -12337.55    23415.917    23415.917 
    4820    293.61511    37.914779   -12336.343    23529.538    23529.538 
    4830    299.92623     38.72974   -12337.159    23564.459    23564.459 
    4840    312.86042    40.399943   -12338.831    23548.084    23548.084 
    4850    312.35167    40.334248   -12338.766    23549.949    23549.949 
    4860    293.93937    37.956651   -12336.386    23565.986    23565.986 
    4870    287.57956    37.135404   -12335.564    23520.277    23520.277 
    4880    298.62986    38.562338   -12336.994    23448.928    23448.928 
    4890    298.64195    38.563899   -12336.994     23465.88     23465.88 
    4900    301.52001    38.935545   -12337.364    23529.158    23529.158 
    4910    316.98697    40.932809   -12339.366    23549.366    23549.366 
    4920    308.71032    39.864037   -12338.296    23558.064    23558.064 
    4930    289.63202    37.400439   -12335.828    23555.412    23555.412 
    4940    296.94441    38.344694   -12336.776    23514.031    23514.031 
    4950     298.3206    38.522404   -12336.954    23504.084    23504.084 
    4960    292.91499    37.824372   -12336.253    23477.224    23477.224 
    4970    304.38792    39.305881   -12337.738    23400.948    23400.948 
    4980    297.46933    38.412478   -12336.844    23427.942    23427.942 
    4990    281.23956    36.316714   -12334.742    23551.482    23551.482 
    5000    309.03607    39.906101   -12338.337    23597.472    23597.472 
    5010    333.53235    43.069327   -12341.505    23589.689    23589.689 
    5020    303.46199    39.186316   -12337.615     23595.65     23595.65 
    5030    284.88585    36.787562   -12335.215    23521.417    23521.417 
    5040    296.78887    38.324609   -12336.757    23427.462    23427.462 
    5050    294.65063    38.048496   -12336.478    23425.138    23425.138 
    5060    294.67402    38.051517   -12336.481    23420.255    23420.255 
    5070    296.54162    38.292682   -12336.725     23424.03     23424.03 
    5080    278.93998    36.019767   -12334.447    23526.315    23526.315 
    5090    292.15281     37.72595   -12336.154    23576.348    23576.348 
    5100    327.02736    42.229333   -12340.665    23537.964    23537.964 
    5110    308.77149    39.871935   -12338.303    23570.431    23570.431 
    5120    284.59408    36.749885   -12335.175    23578.878    23578.878 
    5130    310.05452    40.037614   -12338.471    23486.088    23486.088 
    5140     311.8458    40.268924   -12338.703    23497.865    23497.865 
    5150    283.15122    36.563568   -12334.988    23577.888    23577.888 
    5160    304.31442     39.29639   -12337.727    23499.021    23499.021 
    5170     321.0973    41.463579   -12339.899    23444.713    23444.713 
    5180    288.45706    37.248715   -12335.676    23527.059    23527.059 
    5190    282.16887    36.436716   -12334.864    23522.396    23522.396 
    5200     304.0272    39.259301   -12337.693     23459.63     23459.63 
    5210    298.49614     38.54507   -12336.975    23498.171    23498.171 
    5220    296.41219    38.275968   -12336.705    23499.863    23499.863 
    5230    302.82212    39.103688   -12337.537    23453.198    23453.198 
    5240    285.40897    36.855113   -12335.283    23503.364    23503.364 
    5250    289.75314    37.416079   -12335.844    23520.738    23520.738 
    5260    313.50725    40.483468   -12338.918    23478.723    23478.723 
    5270    300.80983     38.84384   -12337.273    23562.227    23562.227 
    5280    299.85437     38.72046   -12337.147    23638.818    23638.818 
    5290    332.93145    42.991733   -12341.428    23567.856    23567.856 
    5300    313.77935    40.518606   -12338.951    23584.374    23584.374 
    5310    275.24239    35.542293   -12333.965    23658.188    23658.188 
    5320    308.32792    39.814657   -12338.247    23512.329    23512.329 
    5330    324.03275    41.842635    -12340.28    23376.214    23376.214 
    5340    270.95056    34.988085   -12333.413    23455.391    23455.391 
    5350     263.2834    33.998018   -12332.424    23456.832    23456.832 
    5360    302.51657    39.064233     -12337.5    23367.766    23367.766 
    5370    296.73008    38.317017   -12336.748    23470.712    23470.712 
    5380    285.84489    36.911404   -12335.336    23626.877    23626.877 
    5390    325.09688    41.980048   -12340.414    23586.701    23586.701 
    5400    333.63026    43.081971   -12341.517    23557.183    23557.183 
    5410    293.89198    37.950531   -12336.377    23612.174    23612.174 
    5420    291.00101    37.577218   -12336.006    23517.708    23517.708 
    5430    306.88837    39.628767   -12338.064    23378.541    23378.541 
    5440    280.50429    36.221768   -12334.651    23432.654    23432.654 
    5450    269.21236    34.763631   -12333.189     23497.03     23497.03 
    5460    308.69528    39.862095   -12338.296    23447.937    23447.937 
    5470    315.61271    40.755348    -12339.19    23509.803    23509.803 
    5480    285.22304    36.831104   -12335.256    23635.556    23635.556 
    5490    300.37463    38.787641   -12337.218    23582.162    23582.162 
    5500    320.28257    41.358372   -12339.794    23522.669    23522.669 
    5510    296.03883    38.227757   -12336.655    23581.279    23581.279 
    5520    299.83292     38.71769   -12337.146    23518.519    23518.519 
    5530    319.89049    41.307742   -12339.744     23423.38     23423.38 
    5540    285.37474    36.850693   -12335.279    23535.584    23535.584 
    5550    277.93964    35.890591   -12334.314    23602.221    23602.221 
    5560    334.11519    43.144591   -12341.582    23499.184    23499.184 
    5570    321.79706    41.553939   -12339.988    23564.128    23564.128 
    5580    275.75836    35.608922   -12334.031    23653.068    23653.068 
    5590    306.80414     39.61789   -12338.051    23490.065    23490.065 
    5600    309.49916      39.9659   -12338.403    23429.998    23429.998 
    5610    252.89819    32.656967   -12331.077    23561.622    23561.622 
    5620    290.45557    37.506785   -12335.935    23462.167    23462.167 
    5630    348.52247    45.005014   -12343.448    23351.081    23351.081 
    5640    291.83935    37.685474   -12336.113    23547.429    23547.429 
    5650    262.35272    33.877839   -12332.299    23596.632    23596.632 
    5660    313.49678    40.482117   -12338.921    23386.917    23386.917 
    5670     294.0861    37.975599   -12336.408    23409.563    23409.563 
    5680    261.36485    33.750275   -12332.171      23542.2      23542.2 
    5690    318.15494    41.083628   -12339.518    23495.422    23495.422 
    5700    336.02079    43.390662   -12341.827    23578.818    23578.818 
    5710    295.10314    38.106929    -12336.53    23766.211    23766.211 
    5720    314.64429    40.630295   -12339.061    23677.378    23677.378 
    5730    330.26867    42.647886   -12341.086    23521.448    23521.448 
    5740    276.41019    35.693092   -12334.118    23525.644    23525.644 
    5750    268.37549    34.655565   -12333.082    23403.064    23403.064 
    5760    300.99422     38.86765   -12337.303    23255.518    23255.518 
    5770    286.33442    36.974618   -12335.403    23388.487    23388.487 
    5780     285.1875    36.826514   -12335.252     23556.95     23556.95 
    5790    325.62132    42.047769   -12340.483    23563.599    23563.599 
    5800     320.3311    41.364638   -12339.797    23613.553    23613.553 
    5810    293.01953    37.837871   -12336.264    23647.433    23647.433 
    5820    300.91746    38.857738    -12337.29    23534.546    23534.546 
    5830    296.47967    38.284683   -12336.716     23498.21     23498.21 
    5840    287.54964     37.13154   -12335.557    23555.003    23555.003 
    5850    318.36499    41.110752   -12339.544    23494.781    23494.781 
    5860     321.7812    41.551891   -12339.988    23458.119    23458.119 
    5870    276.60183    35.717839   -12334.143    23565.772    23565.772 
    5880     282.5542    36.486474   -12334.914    23553.327    23553.327 
    5890    315.19719    40.701691   -12339.138    23453.271    23453.271 
    5900    291.91351     37.69505   -12336.124    23510.463    23510.463 
    5910    278.58561    35.974006   -12334.399    23556.808    23556.808 
    5920    319.20474     41.21919   -12339.654    23455.012    23455.012 
    5930    322.60657    41.658471   -12340.093    23469.927    23469.927 
    5940    285.32892    36.844776    -12335.27    23593.275    23593.275 
    5950    291.73658    37.672203   -12336.102    23550.245    23550.245 
    5960    308.85665    39.882933   -12338.318    23476.602    23476.602 
    5970    286.82118    37.037473   -12335.466    23562.329    23562.329 
    5980    287.87568    37.173641     -12335.6    23587.024    23587.024 
    5990    323.92385    41.828574   -12340.264    23466.117    23466.117 
    6000    310.03376    40.034934   -12338.468     23455.45     23455.45 
    6010    270.35564    34.911263   -12333.337    23502.494    23502.494 
    6020    280.52443    36.224368   -12334.653    23444.636    23444.636 
    6030    309.91997     40.02024   -12338.454    23433.522    23433.522 
    6040    306.50631    39.579431    -12338.01    23549.934    23549.934 
    6050    301.75705    38.966155   -12337.395    23596.411    23596.411 
    6060    310.26108    40.064288   -12338.497    23572.206    23572.206 
    6070    301.89088    38.983437   -12337.413    23611.476    23611.476 
    6080    296.66876      38.3091   -12336.738    23596.617    23596.617 
    6090    302.83368    39.105181   -12337.537    23504.139    23504.139 
    6100    300.52717    38.807339   -12337.238     23460.12     23460.12 
    6110    299.89234    38.725363   -12337.155    23453.934    23453.934 
    6120    308.69781    39.862421   -12338.295    23468.904    23468.904 
    6130    300.10964    38.753424   -12337.183    23588.763    23588.763 
    6140     298.8032    38.584722   -12337.012    23656.617    23656.617 
    6150    320.12943    41.338597   -12339.774    23537.593    23537.593 
    6160    295.13593    38.111164   -12336.543    23488.934    23488.934 
    6170    256.81077    33.162202   -12331.584    23527.403    23527.403 
    6180     297.3118    38.392136   -12336.824    23397.005    23397.005 
    6190    323.81774    41.814872   -12340.253     23324.79     23324.79 
    6200    278.09681    35.910887   -12334.336    23498.888    23498.888 
    6210    284.31261    36.713539   -12335.139    23593.912    23593.912 
    6220    336.20159    43.414009   -12341.853    23565.153    23565.153 
    6230    313.12533    40.434151   -12338.865    23654.304    23654.304 
    6240      282.787    36.516535   -12334.941    23644.441    23644.441 
    6250    307.49759    39.707436   -12338.143    23425.451    23425.451 
    6260    287.62412    37.141158   -12335.572     23385.41     23385.41 
    6270    262.47991    33.894263   -12332.316    23479.448    23479.448 
    6280    311.64572    40.243087   -12338.677    23434.825    23434.825 
    6290    326.53308    42.165505   -12340.602    23454.771    23454.771 
    6300    283.97916    36.670481   -12335.094     23606.82     23606.82 
    6310    303.79094    39.228793   -12337.659    23596.266    23596.266 
    6320    324.24714     41.87032   -12340.307     23564.88     23564.88 
    6330    284.69727     36.76321   -12335.188    23654.904    23654.904 
    6340    292.64063    37.788944   -12336.216     23595.88     23595.88 
    6350    330.59869    42.690502   -12341.128    23454.364    23454.364 
    6360    302.80173    39.101056    -12337.53    23504.821    23504.821 
    6370     281.9558    36.409202   -12334.835    23535.475    23535.475 
    6380     300.7462    38.835622   -12337.271    23424.584    23424.584 
    6390      282.415    36.468499   -12334.898    23440.021    23440.021 
    6400    274.01486    35.383781   -12333.809    23533.974    23533.974 
    6410     316.9723    40.930913   -12339.365    23541.414    23541.414 
    6420    329.48489    42.546675   -12340.981    23582.538    23582.538 
    6430    307.65841    39.728203   -12338.156    23633.162    23633.162 
    6440    306.23871    39.544876   -12337.978    23533.007    23533.007 
    6450    283.48172    36.606245   -12335.038    23441.284    23441.284 
    6460    256.72078    33.150581   -12331.575    23439.217    23439.217 
    6470    289.76499     37.41761   -12335.849    23405.396    23405.396 
    6480    319.02302    41.195725   -12339.632    23428.246    23428.246 
    6490    297.78623    38.453399   -12336.881    23596.822    23596.822 
    6500    305.60962     39.46364    -12337.89     23700.53     23700.53 
    6510    348.77242    45.037291   -12343.474    23642.231    23642.231 
    6520    333.00534    43.001274   -12341.436    23603.276    23603.276 
    6530    271.32348    35.036241   -12333.461    23602.824    23602.824 
    6540    264.23015    34.120274   -12332.546    23482.219    23482.219 
    6550    302.49302    39.061191   -12337.496    23330.137    23330.137 
    6560    297.14248    38.370271   -12336.804    23364.366    23364.366 
    6570    262.75867     33.93026   -12332.355    23496.646    23496.646 
    6580    285.28097    36.838585   -12335.267    23493.874    23493.874 
    6590    324.70134    41.928972   -12340.365    23468.042    23468.042 
    6600    307.30281    39.682284   -12338.112    23586.213    23586.213 
    6610     296.0646    38.231083   -12336.656    23663.827    23663.827 
    6620    330.92225    42.732283   -12341.167    23582.175    23582.175 
    6630    322.51664    41.646859   -12340.081    23558.727    23558.727 
    6640       276.87    35.752468   -12334.177    23599.244    23599.244 
    6650    288.78315    37.290823    -12335.72    23510.833    23510.833 
    6660    310.91715    40.149007   -12338.585    23436.388    23436.388 
    6670    285.54472    36.872643   -12335.301    23511.729    23511.729 
    6680    281.27808    36.321687   -12334.749    23555.166    23555.166 
    6690    310.21818    40.058748   -12338.492    23523.326    23523.326 
    6700    312.96186    40.413042   -12338.844    23541.249    23541.249 
    6710    308.66527     39.85822   -12338.288    23530.909    23530.909 
    6720      310.775     40.13065   -12338.564    23456.319    23456.319 
    6730    282.46174    36.474534   -12334.904    23467.354    23467.354 
    6740    262.69107    33.921531   -12332.347    23522.652    23522.652 
    6750    295.27488    38.129106   -12336.561     23508.43     23508.43 
    6760    319.95304    41.315819   -12339.749    23552.552    23552.552 
    6770    314.65373    40.631515    -12339.06    23659.951    23659.951 
    6780    322.72694    41.674015   -12340.105     23645.74     23645.74 
    6790    324.59724    41.915529   -12340.349    23550.969    23550.969 
    6800    294.34393    38.008892   -12336.438    23511.903    23511.903 
    6810    273.81775    35.358328   -12333.787     23463.41     23463.41 
    6820    276.20886    35.667095   -12334.098    23381.866    23381.866 
    6830    278.47179    35.959309   -12334.389    23373.915    23373.915 
    6840    288.79647    37.292544   -12335.722    23430.273    23430.273 
    6850    308.30338    39.811489   -12338.244    23482.714    23482.714 
    6860    311.33322    40.202734   -12338.635     23554.35     23554.35 
    6870    300.98809    38.866859   -12337.296    23637.623    23637.623 
    6880    303.48082    39.188747   -12337.619     23638.82     23638.82 
    6890    311.90625     40.27673   -12338.708    23585.063    23585.063 
    6900    312.84276    40.397662   -12338.829    23565.384    23565.384 
    6910    306.57211    39.587928   -12338.018    23565.482    23565.482 
    6920    300.09093    38.751008   -12337.181     23530.11     23530.11 
    6930    296.72213    38.315992   -12336.747    23485.848    23485.848 
    6940    289.61081      37.3977   -12335.828    23482.367    23482.367 
    6950    283.28204     36.58046    -12335.01    23486.292    23486.292 
    6960    291.53174    37.645751   -12336.076    23476.411    23476.411 
    6970     305.0564    39.392203   -12337.824    23485.106    23485.106 
    6980    305.45342     39.44347   -12337.874    23509.419    23509.419 
    6990    307.06773    39.651928   -12338.083    23493.246    23493.246 
    7000    305.08681    39.396129   -12337.828    23483.485    23483.485 
    7010    287.24803    37.092593   -12335.522    23522.792    23522.792 
    7020    282.63928     36.49746   -12334.925     23553.36     23553.36 
    7030    305.54951    39.455878   -12337.888    23558.169    23558.169 
    7040     312.2116     40.31616   -12338.749    23604.732    23604.732 
    7050    301.39113    38.918904   -12337.347    23644.541    23644.541 
    7060    313.49313    40.481645   -12338.912    23583.877    23583.877 
    7070    321.98858     41.57867   -12340.012    23500.603    23500.603 
    7080    299.65575    38.694812   -12337.125    23459.606    23459.606 
    7090    277.48509    35.831895   -12334.261    23442.128    23442.128 
    7100    272.72879     35.21771   -12333.647    23472.908    23472.908 
    7110    286.71946    37.024337   -12335.453    23535.107    23535.107 
    7120    317.59102     41.01081   -12339.444    23552.374    23552.374 
    7130    322.35887    41.626486    -12340.06    23556.042    23556.042 
    7140    296.81873    38.328466   -12336.757    23541.385    23541.385 
    7150    288.33393    37.232816   -12335.662    23460.907    23460.907 
    7160    292.33253    37.749158   -12336.181    23421.881    23421.881 
    7170    284.41661    36.726969   -12335.155     23504.82     23504.82 
    7180    300.63315    38.821025    -12337.25    23558.016    23558.016 
    7190    330.21491    42.640944   -12341.076    23542.014    23542.014 
    7200    313.64717    40.501536   -12338.933    23578.645    23578.645 
    7210    286.49783    36.995719   -12335.423    23589.384    23589.384 
    7220    288.66096    37.275045   -12335.706    23496.546    23496.546 
    7230     287.8167    37.166025   -12335.597    23414.347    23414.347 
    7240    281.88849     36.40051   -12334.829    23419.571    23419.571 
    7250    294.91377    38.082476   -12336.512    23494.249    23494.249 
    7260    314.53381    40.616029   -12339.047    23593.584    23593.584 
    7270    325.18976    41.992041   -12340.424    23639.411    23639.411 
    7280    318.03226    41.067787     -12339.5     23622.95     23622.95 
    7290    296.50439    38.287874   -12336.716    23590.103    23590.103 
    7300    293.56007    37.907671   -12336.337    23532.004    23532.004 
    7310    303.47318    39.187761   -12337.621    23481.991    23481.991 
    7320    289.97044     37.44414   -12335.874    23495.401    23495.401 
    7330    286.40432    36.983643   -12335.411    23474.855    23474.855 
    7340    308.57464    39.846517    -12338.28    23426.033    23426.033 
    7350    304.64034    39.338477    -12337.77    23492.619    23492.619 
    7360    290.65421    37.532436   -12335.959    23572.606    23572.606 
    7370    305.72144     39.47808   -12337.911    23536.623    23536.623 
    7380    303.48387     39.18914   -12337.621    23538.117    23538.117 
    7390     288.1883     37.21401   -12335.641    23573.828    23573.828 
    7400    305.58388    39.460316   -12337.892    23508.545    23508.545 
    7410    307.25694     39.67636    -12338.11     23467.87     23467.87 
    7420    279.80275    36.131177   -12334.558     23487.69     23487.69 
    7430     286.8998    37.047626   -12335.477    23431.135    23431.135 
    7440    301.34595    38.913069   -12337.347    23438.505    23438.505 
    7450    290.94966    37.570586   -12335.998    23593.415    23593.415 
    7460     307.4947    39.707063   -12338.137    23640.582    23640.582 
    7470    324.19155    41.863142   -12340.298     23578.89     23578.89 
    7480     302.0891    39.009033   -12337.437    23575.452    23575.452 
    7490    300.89178    38.854421   -12337.283    23537.459    23537.459 
    7500    312.31885    40.330009   -12338.766    23457.158    23457.158 
    7510    277.59923    35.846634   -12334.274    23493.475    23493.475 
    7520    269.20619    34.762833   -12333.188    23509.952    23509.952 
    7530    310.29028    40.068058   -12338.503    23448.632    23448.632 
    7540    307.88372    39.757298   -12338.189    23535.834    23535.834 
    7550    295.23816    38.124365   -12336.549    23653.273    23653.273 
    7560    330.08017    42.623545   -12341.058    23573.608    23573.608 
    7570     324.6047    41.916492   -12340.351    23521.931    23521.931 
    7580    278.20198    35.924467   -12334.348    23590.415    23590.415 
    7590    295.03737    38.098436   -12336.528    23531.938    23531.938 
    7600    322.52284     41.64766   -12340.086    23421.637    23421.637 
    7610    275.27927    35.547055   -12333.975    23484.924    23484.924 
    7620    251.17656    32.434652   -12330.857    23528.689    23528.689 
    7630    304.18031    39.279072   -12337.713    23430.342    23430.342 
    7640    329.61071    42.562922   -12340.998    23436.912    23436.912 
    7650    303.23505     39.15701   -12337.586    23564.773    23564.773 
    7660    292.23905    37.737087   -12336.165    23605.907    23605.907 
    7670    303.39533    39.177707    -12337.61    23565.765    23565.765 
    7680    302.16645    39.019021   -12337.449    23578.632    23578.632 
    7690    300.73049    38.833594   -12337.263    23597.236    23597.236 
    7700    311.51368    40.226037   -12338.658    23557.756    23557.756 
    7710    310.21554    40.058407   -12338.491    23517.523    23517.523 
    7720    290.47954     37.50988   -12335.939    23505.995    23505.995 
    7730    286.65759    37.016348   -12335.444    23474.124    23474.124 
    7740    303.88422    39.240838   -12337.674    23438.769    23438.769 
    7750    296.94669    38.344989   -12336.777    23473.671    23473.671 
    7760    276.18682    35.664248   -12334.091    23505.891    23505.891 
    7770    288.22099    37.218232   -12335.648    23459.356    23459.356 
    7780    303.48281    39.189004   -12337.622    23459.146    23459.146 
    7790    292.17727    37.729109   -12336.157     23555.42     23555.42 
    7800    301.38161    38.917674   -12337.346    23599.489    23599.489 
    7810     327.9468     42.34806   -12340.782    23596.725    23596.725 
    7820    317.48585    40.997228   -12339.428    23649.492    23649.492 
    7830    304.31494    39.296458   -12337.723    23644.569    23644.569 
    7840    320.42984    41.377388   -12339.811    23522.723    23522.723 
    7850    304.93722    39.376813   -12337.809    23457.502    23457.502 
    7860    268.53566    34.676247   -12333.102    23439.892    23439.892 
    7870     274.4528    35.440333    -12333.87    23383.794    23383.794 
    7880    289.96996    37.444077   -12335.876    23437.918    23437.918 
    7890    294.86146    38.075722   -12336.504    23589.183    23589.183 
    7900    320.06059    41.329708   -12339.761     23634.01     23634.01 
    7910    330.83176    42.720597   -12341.155     23604.74     23604.74 
    7920    307.33445    39.686369   -12338.114    23581.864    23581.864 
    7930    302.35408     39.04325   -12337.474    23470.992    23470.992 
    7940    291.04296    37.582635   -12336.016    23387.435    23387.435 
    7950    253.13166    32.687115   -12331.112    23454.627    23454.627 
    7960    271.46031     35.05391    -12333.48    23482.541    23482.541 
    7970    327.12496    42.241935   -12340.679    23461.797    23461.797 
    7980    318.51288     41.12985   -12339.561    23583.947    23583.947 
    7990    299.69736    38.700185   -12337.125    23672.116    23672.116 
    8000    325.24071    41.998621   -12340.434    23566.033    23566.033 
    8010    308.94141    39.893878   -12338.327    23512.216    23512.216 
    8020    264.04581    34.096469   -12332.521    23546.003    23546.003 
    8030    279.08347    36.038296   -12334.468    23461.298    23461.298 
    8040    305.31815    39.426003   -12337.861    23369.891    23369.891 
    8050    289.30436    37.358127   -12335.787    23438.764    23438.764 
    8060    288.68293    37.277883   -12335.706    23529.356    23529.356 
    8070    313.92108    40.536907   -12338.969    23569.916    23569.916 
    8080    323.50116     41.77399   -12340.206    23636.924    23636.924 
    8090    316.75169    40.902426   -12339.333     23700.51     23700.51 
    8100    308.06444    39.780634    -12338.21    23668.496    23668.496 
    8110     308.6527    39.856596   -12338.287    23539.973    23539.973 
    8120     305.6744    39.472006   -12337.906    23424.639    23424.639 
    8130    273.31869    35.293884   -12333.723     23411.99     23411.99 
    8140    259.54095    33.514752    -12331.94    23421.286    23421.286 
    8150    299.13659    38.627773    -12337.06    23419.256    23419.256 
    8160     324.0151    41.840356   -12340.275    23511.505    23511.505 
    8170    307.73322    39.737863   -12338.166    23650.238    23650.238 
    8180    305.95568    39.508328   -12337.938    23666.217    23666.217 
    8190    309.21978    39.929824   -12338.362      23586.8      23586.8 
    8200    293.92703    37.955057   -12336.384    23479.902    23479.902 
    8210    289.15475    37.338809   -12335.769    23372.339    23372.339 
    8220    288.24356    37.221145   -12335.653    23362.746    23362.746 
    8230    280.36692    36.204028   -12334.632    23436.429    23436.429 
    8240    291.66816    37.663368   -12336.093     23501.04     23501.04 
    8250     309.7386    39.996819   -12338.429    23595.535    23595.535 
    8260    314.27785    40.582976   -12339.012     23691.58     23691.58 
    8270     328.2544    42.387781    -12340.82    23649.137    23649.137 
    8280    318.81052    41.168285   -12339.602    23581.652    23581.652 
    8290    276.83075    35.747399   -12334.173    23576.312    23576.312 
    8300    282.64535    36.498245   -12334.926    23477.546    23477.546 
    8310    310.08063    40.040986   -12338.477    23403.469    23403.469 
    8320    289.30556    37.358283   -12335.787    23508.148    23508.148 
    8330     284.6905    36.762336   -12335.189    23539.974    23539.974 
    8340    314.85077    40.656959   -12339.093    23439.256    23439.256 
    8350    297.10629    38.365598   -12336.796    23472.941    23472.941 
    8360    277.54876    35.840116   -12334.265    23535.732    23535.732 
    8370    311.06415    40.167989   -12338.602    23470.679    23470.679 
    8380    310.56922    40.104078   -12338.537    23514.327    23514.327 
    8390    284.42399    36.727921   -12335.153    23643.421    23643.421 
    8400    309.48604    39.964206   -12338.396     23613.82     23613.82 
    8410    325.26638    42.001936   -12340.437    23559.279    23559.279 
    8420    296.56468     38.29566   -12336.723    23590.354    23590.354 
    8430    292.33199    37.749088   -12336.178    23532.799    23532.799 
    8440    306.89505    39.629629   -12338.063    23427.112    23427.112 
    8450    291.70869    37.668601   -12336.098    23460.903    23460.903 
    8460     287.1716    37.082723    -12335.51    23525.243    23525.243 
    8470    308.85864    39.883189   -12338.316    23520.437    23520.437 
    8480    308.84641    39.881611   -12338.313    23556.966    23556.966 
    8490    295.52471    38.161368    -12336.59    23598.447    23598.447 
    8500    295.07628    38.103461   -12336.534    23544.303    23544.303 
    8510     296.3808    38.271914   -12336.703    23479.834    23479.834 
    8520    293.76379    37.933978   -12336.364    23489.811    23489.811 
    8530     294.6128    38.043611   -12336.474    23516.213    23516.213 
    8540    299.12668    38.626493   -12337.057     23525.25     23525.25 
    8550    304.13051    39.272642   -12337.703    23539.449    23539.449 
    8560    306.95718    39.637652   -12338.068    23545.627    23545.627 
    8570    310.42486    40.085437   -12338.517    23526.528    23526.528 
    8580    303.02008     39.12925   -12337.561    23537.025    23537.025 
    8590    287.11462    37.075365   -12335.504    23555.572    23555.572 
    8600    290.92788    37.567775   -12335.997    23506.198    23506.198 
    8610    306.91494    39.632198   -12338.065    23466.202    23466.202 
    8620    296.57672    38.297214   -12336.728    23521.901    23521.901 
    8630    286.42992    36.986949   -12335.414    23527.081    23527.081 
    8640    305.95487    39.508223   -12337.941    23440.165    23440.165 
    8650     303.5068    39.192102   -12337.624    23474.854    23474.854 
    8660    287.15152     37.08013   -12335.506    23582.702    23582.702 
    8670    313.31831    40.459071   -12338.891     23561.56     23561.56 
    8680    321.50162    41.515788   -12339.951    23555.954    23555.954 
    8690    285.81776    36.907901   -12335.334    23628.274    23628.274 
    8700    291.50365    37.642124   -12336.071    23575.304    23575.304 
    8710    313.29386    40.455913   -12338.891    23501.518    23501.518 
    8720    297.55219    38.423178   -12336.851    23536.763    23536.763 
    8730    301.43451    38.924505   -12337.354    23501.507    23501.507 
    8740    313.14947    40.437268   -12338.873    23438.716    23438.716 
    8750    276.93695    35.761113   -12334.188    23524.527    23524.527 
    8760    271.77385    35.094398   -12333.519    23557.092    23557.092 
    8770    318.38698    41.113593    -12339.55    23468.464    23468.464 
    8780    311.62267    40.240111   -12338.672    23517.919    23517.919 
    8790    289.48398    37.381323   -12335.806    23585.335    23585.335 
    8800    315.84323    40.785116    -12339.22    23499.268    23499.268 
    8810    307.08457    39.654102   -12338.087    23500.347    23500.347 
    8820    273.62172    35.333015   -12333.757    23585.058    23585.058 
    8830    300.09987    38.752161   -12337.184    23519.058    23519.058 
    8840    314.04918    40.553449   -12338.989    23483.104    23483.104 
    8850    284.06519    36.681589   -12335.106    23585.042    23585.042 
    8860    306.79225    39.616355   -12338.046    23563.425    23563.425 
    8870    331.63445     42.82425   -12341.262    23499.951    23499.951 
    8880    287.61307     37.13973   -12335.567    23569.141    23569.141 
    8890    274.37994    35.430924   -12333.856     23550.43     23550.43 
    8900    309.07616    39.911278   -12338.347    23431.497    23431.497 
    8910    294.97129    38.089904    -12336.52    23484.491    23484.491 
    8920    280.95505    36.279975   -12334.705    23569.597    23569.597 
    8930    317.18308    40.958131   -12339.392    23505.727    23505.727 
    8940    318.34456    41.108114   -12339.542    23497.139    23497.139 
    8950     287.6261    37.141413   -12335.568     23559.88     23559.88 
    8960    291.99228    37.705222   -12336.135    23528.263    23528.263 
    8970    301.00031    38.868436   -12337.301    23490.255    23490.255 
    8980    289.98546    37.446079   -12335.874     23522.83     23522.83 
    8990    296.32948    38.265288   -12336.696    23515.269    23515.269 
    9000     303.7371    39.221841   -12337.654    23502.668    23502.668 
    9010    296.49439    38.286582   -12336.715     23548.83     23548.83 
    9020    307.72891    39.737307   -12338.168    23558.016    23558.016 
    9030    317.58989    41.010663   -12339.444    23555.015    23555.015 
    9040    303.91811    39.245214   -12337.674    23606.649    23606.649 
    9050    302.37465    39.045906   -12337.475    23611.123    23611.123 
    9060    308.19571    39.797584   -12338.231    23545.051    23545.051 
    9070    289.17704    37.341688   -12335.771     23526.76     23526.76 
    9080    283.76862    36.643293   -12335.071    23510.152    23510.152 
    9090    302.06171    39.005496   -12337.438    23446.977    23446.977 
    9100    300.69525    38.829043    -12337.26    23437.691    23437.691 
    9110    290.62687    37.528905   -12335.957    23496.281    23496.281 
    9120    304.22464    39.284797   -12337.716    23529.196    23529.196 
    9130     311.5675    40.232987   -12338.666    23546.826    23546.826 
    9140    297.73745    38.447101   -12336.876    23567.917    23567.917 
    9150    296.54872    38.293598   -12336.724    23530.012    23530.012 
    9160    294.60008    38.041969   -12336.473    23494.162    23494.162 
    9170    285.32566    36.844355   -12335.273    23505.256    23505.256 
    9180    293.65724    37.920219    -12336.35    23494.873    23494.873 
    9190    305.88834    39.499632   -12337.932    23467.921    23467.921 
    9200    302.17942    39.020695    -12337.45     23491.27     23491.27 
    9210    306.03078    39.518026   -12337.948    23538.905    23538.905 
    9220     313.4945    40.481822   -12338.915    23594.576    23594.576 
    9230    300.30338    38.778442   -12337.208    23660.001    23660.001 
    9240    298.48592    38.543751   -12336.973    23625.182    23625.182 
    9250    306.10083     39.52707    -12337.96    23513.485    23513.485 
    9260    286.72003    37.024411   -12335.455    23451.343    23451.343 
    9270    271.79625     35.09729   -12333.524     23411.92     23411.92 
    9280    289.98619    37.446173   -12335.878    23381.006    23381.006 
    9290    299.66696     38.69626   -12337.127    23471.062    23471.062 
    9300    307.39679    39.694419   -12338.122    23613.689    23613.689 
    9310    334.49354    43.193447   -12341.627    23677.615    23677.615 
    9320      330.097    42.625718   -12341.059    23723.631    23723.631 
    9330     296.5381    38.292227   -12336.719    23720.036    23720.036 
    9340      299.348    38.655072   -12337.085    23546.901    23546.901 
    9350    307.36704    39.690577   -12338.126    23369.363    23369.363 
    9360     271.4026    35.046457   -12333.474    23382.028    23382.028 
    9370    263.18886     33.98581   -12332.411    23432.309    23432.309 
    9380    306.92212    39.633125   -12338.067    23425.776    23425.776 
    9390    315.54123    40.746118    -12339.18    23493.575    23493.575 
    9400    288.18739    37.213892   -12335.641     23575.18     23575.18 
    9410    293.65016    37.919306    -12336.35    23533.751    23533.751 
    9420    303.00265       39.127    -12337.56    23507.395    23507.395 
    9430    287.87765    37.173896   -12335.602    23574.912    23574.912 
    9440    298.76079    38.579246   -12337.007    23598.662    23598.662 
    9450    333.53674    43.069895   -12341.504     23576.44     23576.44 
    9460    331.43956    42.799084   -12341.233    23604.503    23604.503 
    9470    297.47876    38.413696   -12336.842    23622.924    23622.924 
    9480    280.96428    36.281167    -12334.71    23553.293    23553.293 
    9490    285.13868     36.82021   -12335.251    23448.555    23448.555 
    9500    289.58945    37.394942   -12335.827    23371.217    23371.217 
    9510    282.12791    36.431427   -12334.862    23390.393    23390.393 
    9520    278.51387    35.964743   -12334.392    23492.792    23492.792 
    9530    304.58077    39.330784   -12337.761    23544.535    23544.535 
    9540    329.37447    42.532417   -12340.967    23568.501    23568.501 
    9550    310.17254    40.052854   -12338.483    23674.855    23674.855 
    9560    295.02032    38.096235   -12336.523    23710.432    23710.432 
    9570    316.76165    40.903712   -12339.337    23567.765    23567.765 
    9580    309.98721    40.028922   -12338.462    23485.001    23485.001 
    9590    281.04319    36.291356   -12334.717    23511.585    23511.585 
    9600    295.90371    38.210308   -12336.641    23449.362    23449.362 
    9610      309.065    39.909836   -12338.346    23403.717    23403.717 
    9620    272.56708    35.196828   -12333.623    23538.925    23538.925 
    9630    276.46349    35.699975   -12334.125    23618.678    23618.678 
    9640    332.85125    42.981376   -12341.418    23572.207    23572.207 
    9650    334.95797    43.253419   -12341.687     23632.74     23632.74 
    9660    304.12802     39.27232   -12337.699     23679.61     23679.61 
    9670    305.37592    39.433462   -12337.865    23531.664    23531.664 
    9680    294.08706    37.975722   -12336.408    23409.214    23409.214 
    9690    267.66678    34.564048   -12332.991    23400.252    23400.252 
    9700    278.41056    35.951402   -12334.381    23361.019    23361.019 
    9710     295.0935    38.105685   -12336.539    23381.194    23381.194 
    9720    290.65777    37.532894   -12335.961    23524.437    23524.437 
    9730    306.60803    39.592566   -12338.023    23590.878    23590.878 
    9740    325.93882    42.088769   -12340.524    23580.754    23580.754 
    9750    305.56697    39.458133   -12337.888    23649.499    23649.499 
    9760    291.44669     37.63477   -12336.063    23652.408    23652.408 
    9770    302.70574     39.08866   -12337.521    23519.084    23519.084 
    9780    296.18062    38.246066   -12336.677     23465.94     23465.94 
    9790    284.61016    36.751962   -12335.179      23517.4      23517.4 
    9800    301.07902      38.8786    -12337.31      23517.9      23517.9 
    9810    312.15807    40.309247   -12338.742    23524.675    23524.675 
    9820    300.65432    38.823758   -12337.253    23571.809    23571.809 
    9830     298.5276    38.549134   -12336.979    23531.118    23531.118 
    9840    300.12697    38.755661   -12337.188    23485.273    23485.273 
    9850    289.41022    37.371798   -12335.801    23571.429    23571.429 
    9860    297.58548    38.427476   -12336.855    23634.713    23634.713 
    9870    329.01754    42.486326    -12340.92    23566.463    23566.463 
    9880     326.2107    42.123877   -12340.558     23543.54     23543.54 
    9890    290.44242    37.505087   -12335.933    23574.089    23574.089 
    9900    280.92061    36.275527   -12334.705    23479.768    23479.768 
    9910    282.29884    36.453499   -12334.886    23375.184    23375.184 
    9920     269.4801    34.798204   -12333.226    23419.153    23419.153 
    9930    284.42742    36.728364   -12335.155    23500.019    23500.019 
    9940    332.18807     42.89574    -12341.33    23551.108    23551.108 
    9950    341.27385    44.068994   -12342.503    23683.486    23683.486 
    9960    316.75931     40.90341   -12339.332    23757.166    23757.166 
    9970    308.98262    39.899199   -12338.331    23597.935    23597.935 
    9980    289.23207    37.348793   -12335.781    23409.408    23409.408 
    9990    252.88399    32.655134   -12331.081    23345.679    23345.679 
   10000     258.3181    33.356845   -12331.784    23305.944    23305.944 
Loop time of 13.0471 on 1 procs for 10000 steps with 1000 atoms

Performance: 33.111 ns/day, 0.725 hours/ns, 766.455 timesteps/s
99.8% CPU use with 1 MPI tasks x no OpenMP threads

MPI task timing breakdown:
Section |  min time  |  avg time  |  max time  |%varavg| %total
---------------------------------------------------------------
Pair    | 10.983     | 10.983     | 10.983     |   0.0 | 84.18
Neigh   | 1.3287     | 1.3287     | 1.3287     |   0.0 | 10.18
Comm    | 0.086856   | 0.086856   | 0.086856   |   0.0 |  0.67
Output  | 0.57013    | 0.57013    | 0.57013    |   0.0 |  4.37
Modify  | 0.058186   | 0.058186   | 0.058186   |   0.0 |  0.45
Other   |            | 0.0202     |            |       |  0.15

Nlocal:    1000 ave 1000 max 1000 min
Histogram: 1 0 0 0 0 0 0 0 0 0
Nghost:    2058 ave 2058 max 2058 min
Histogram: 1 0 0 0 0 0 0 0 0 0
Neighs:    0 ave 0 max 0 min
Histogram: 1 0 0 0 0 0 0 0 0 0
FullNghs:  33854 ave 33854 max 33854 min
Histogram: 1 0 0 0 0 0 0 0 0 0

Total # of neighbors = 33854
Ave neighs/atom = 33.854
Neighbor list builds = 1000
Dangerous builds not checked

Total wall time: 0:00:13
