
# Define the lattice
variable	lattice_constant equal 6.2025
lattice		diamond ${lattice_constant}
lattice		diamond 6.2025
Lattice spacing in x,y,z = 6.2025 6.2025 6.2025

# Define region
# multiples of lattice spacing
region 		simbox block 0 5 0 5 0 5

# Create Atoms
create_box 	1 simbox
Created orthogonal box = (0 0 0) to (31.0125 31.0125 31.0125)
  1 by 1 by 1 MPI processor grid
create_atoms 	1 box
Created 1000 atoms
  Time spent = 0.000212193 secs
mass		1 18.015

velocity	all create 600.0 97287

# Define Interatomic Potential
pair_style	sw
pair_coeff	* * mW.sw mW
Reading potential file mW.sw with DATE: 2019-02-27

neighbor 	2.0 bin
neigh_modify	delay 10 check no

# Pressure computations
compute		total_press all pressure thermo_temp
compute		peratom all stress/atom NULL
compute		p all reduce sum c_peratom[1] c_peratom[2] c_peratom[3]
variable	press equal -(c_p[1]+c_p[2]+c_p[3])/(3*vol)

# Density computations
variable	total_mass equal mass(all)
variable	v equal vol
print 		${total_mass}
print 		18014.9999999997
18014.9999999997
print		$v
print		29827.0520332031
29827.0520332031

variable 	density equal v_total_mass/(v_v*18.015)
print 		${density}
print 		0.033526611979179
0.033526611979179


# Run equilibration
thermo_style	custom step temp ke pe c_total_press v_press
thermo		10
dump		1 all atom 10 ${simname}.dump
dump		1 all atom 10 mW_liquid_6.2025.dump

fix 		1 all nve
#temp 300.0 300.0 100.0 iso 0.0 0.0 1000.0
timestep	0.0005
run		10000
Neighbor list info ...
  update every 1 steps, delay 10 steps, check no
  max neighbors/atom: 2000, page size: 100000
  master list distance cutoff = 6.3065
  ghost atom cutoff = 6.3065
  binsize = 3.15325, bins = 10 10 10
  1 neighbor lists, perpetual/occasional/extra = 1 0 0
  (1) pair sw, perpetual
      attributes: full, newton on
      pair build: full/bin/atomonly
      stencil: full/bin/3d
      bin: standard
Per MPI rank memory allocation (min/avg/max) = 4.438 | 4.438 | 4.438 Mbytes
Step Temp KinEng PotEng c_total_press v_press 
       0          600    77.478531   -12377.998    2186.6657    2186.6657 
      10    357.03323    46.104017   -12346.565    2561.9499    2561.9499 
      20    173.53452    22.408666   -12322.842    2454.2148    2454.2148 
      30    324.91989    41.957193    -12342.45    1518.2036    1518.2036 
      40    270.52367    34.932961    -12335.41    1416.3983    1416.3983 
      50    140.12236    18.094125   -12318.531    1800.5462    1800.5462 
      60    299.02343     38.61316   -12339.093    1585.7257    1585.7257 
      70    361.85361    46.726476   -12347.215     1717.956     1717.956 
      80    248.29484    32.062533   -12332.507    2336.8011    2336.8011 
      90    341.18167    44.057091   -12344.528    2250.9291    2250.9291 
     100    408.57746    52.759969   -12353.253    1976.6126    1976.6126 
     110    252.50718    32.606475   -12333.058    2174.4539    2174.4539 
     120    247.47993    31.957303   -12332.415    2014.5813    2014.5813 
     130    351.15982    45.345579   -12345.835    1667.7557    1667.7557 
     140    275.34842    35.555985   -12336.019    1923.5023    1923.5023 
     150    248.67329    32.111402   -12332.566    2074.2981    2074.2981 
     160    347.67935    44.896142   -12345.381     1791.263     1791.263 
     170    303.27492    39.162159   -12339.633    1903.7582    1903.7582 
     180    240.29956    31.030095   -12331.481    2179.6235    2179.6235 
     190    335.58295    43.334123   -12343.811    1983.2868    1983.2868 
     200    354.72069    45.805396   -12346.286    1877.8485    1877.8485 
     210    261.55428    33.774736   -12334.231    2093.7363    2093.7363 
     220    278.93068    36.018566   -12336.484    2027.7723    2027.7723 
     230    330.05818    42.620704     -12343.1    1840.9363    1840.9363 
     240    287.50814    37.126181   -12337.591    1958.8149    1958.8149 
     250    277.99244    35.897409   -12336.361    2015.7301    2015.7301 
     260    317.34648    40.979232   -12341.455    1889.2664    1889.2664 
     270    295.94462     38.21559   -12338.683     1971.787     1971.787 
     280    283.56601     36.61713   -12337.079    2102.8048    2102.8048 
     290    334.15587    43.149844   -12343.624    1992.6865    1992.6865 
     300    333.19476    43.025735     -12343.5    1950.4109    1950.4109 
     310    277.33085    35.811978   -12336.274    2086.1193    2086.1193 
     320    281.58111    36.360818   -12336.826     2067.702     2067.702 
     330    318.14622    41.082503   -12341.557    1925.0429    1925.0429 
     340    298.17083    38.503063   -12338.972    1913.3117    1913.3117 
     350    270.67447    34.952434   -12335.416    1898.7028    1898.7028 
     360    288.23587    37.220153    -12337.69    1777.7243    1777.7243 
     370    297.93239    38.472274   -12338.943     1788.626     1788.626 
     380    286.18647    36.955512   -12337.422    1946.0928    1946.0928 
     390    298.59726    38.558128   -12339.026    2027.5369    2027.5369 
     400    323.03349      41.7136   -12342.185    2077.1205    2077.1205 
     410    326.29479    42.134735   -12342.604    2191.9453    2191.9453 
     420    324.86545    41.950162   -12342.419    2202.8074    2202.8074 
     430    316.22223    40.834056   -12341.305    2066.1282    2066.1282 
     440    290.48006    37.509947   -12337.978    1934.3051    1934.3051 
     450    272.40981    35.176519   -12335.644    1838.7581    1838.7581 
     460    268.47355    34.668227   -12335.137     1778.262     1778.262 
     470    271.87177    35.107043   -12335.574    1808.9972    1808.9972 
     480    296.55263    38.294103   -12338.763    1873.8905    1873.8905 
     490    315.06515    40.684642   -12341.157    1944.2637    1944.2637 
     500    301.23404    38.898618   -12339.365    2075.0485    2075.0485 
     510    307.02446    39.646341   -12340.113    2161.5471    2161.5471 
     520    332.20631    42.898095   -12343.371    2112.6359    2112.6359 
     530    314.20354    40.573382   -12341.044     2032.906     2032.906 
     540    278.08602    35.909494   -12336.374    1984.5016    1984.5016 
     550    281.09849    36.298497   -12336.766      1927.39      1927.39 
     560    300.48117      38.8014   -12339.272    1890.9384    1890.9384 
     570    305.55485    39.456568   -12339.926    1910.4985    1910.4985 
     580    304.07373     39.26531   -12339.734    1943.3326    1943.3326 
     590    298.84395    38.589984   -12339.059    1961.2143    1961.2143 
     600    294.53673    38.033788   -12338.501    1991.6963    1991.6963 
     610      301.799    38.971572    -12339.44    2048.2372    2048.2372 
     620    309.51407    39.967826   -12340.437    2083.7147    2083.7147 
     630    311.53269    40.228492   -12340.697     2043.091     2043.091 
     640    311.13796     40.17752   -12340.648    1972.3747    1972.3747 
     650     293.7269    37.929214   -12338.398     1963.963     1963.963 
     660    280.16598    36.178081   -12336.643    1954.7681    1954.7681 
     670    300.00484    38.739891    -12339.21    1875.4305    1875.4305 
     680    305.42277    39.439512   -12339.912    1865.3414    1865.3414 
     690    280.41183    36.209828   -12336.676    1949.6335    1949.6335 
     700    283.72595    36.637783   -12337.104     1984.749     1984.749 
     710      309.747    39.997905    -12340.47    1984.4622    1984.4622 
     720    304.59506    39.332629   -12339.802    2022.8198    2022.8198 
     730    296.49991    38.287295   -12338.753    2005.5511    2005.5511 
     740    310.08786     40.04192   -12340.513    1938.5458    1938.5458 
     750    303.31482    39.167311   -12339.637    1960.3329    1960.3329 
     760    287.28667    37.097581   -12337.563    2009.2602    2009.2602 
     770     300.1899    38.763787   -12339.233    1975.9745    1975.9745 
     780    307.89472    39.758718    -12340.23    1957.3378    1957.3378 
     790    296.98026    38.349323   -12338.816    1978.2589    1978.2589 
     800    304.85872    39.366676   -12339.836    1955.7157    1955.7157 
     810    304.77077    39.355319   -12339.827     1994.591     1994.591 
     820    283.58377    36.619423   -12337.084     2111.843     2111.843 
     830    304.63564    39.337869   -12339.805    2099.3411    2099.3411 
     840      338.152    43.665866   -12344.142    1998.0814    1998.0814 
     850    304.18257    39.279364   -12339.748    1987.7971    1987.7971 
     860    270.89887    34.981411   -12335.445    1934.0497    1934.0497 
     870     291.3602      37.6236   -12338.095     1801.078     1801.078 
     880    294.58455    38.039963   -12338.511    1802.3713    1802.3713 
     890    279.90019    36.143759   -12336.609    1897.3898    1897.3898 
     900    297.65647    38.436644   -12338.907    1938.7914    1938.7914 
     910    301.82675    38.975155   -12339.446    2040.2316    2040.2316 
     920    291.80551    37.681104   -12338.144    2151.3791    2151.3791 
     930    330.04179    42.618589    -12343.09    2065.6348    2065.6348 
     940    340.75098    44.001476   -12344.478     1988.711     1988.711 
     950    283.08996    36.555658   -12337.019    2056.0161    2056.0161 
     960    276.95655    35.763644   -12336.228    2007.0163    2007.0163 
     970    316.72893    40.899487   -12341.375    1887.4778    1887.4778 
     980    298.93884    38.602237   -12339.071    1934.5892    1934.5892 
     990     278.3563    35.944396   -12336.409     1957.646     1957.646 
    1000    297.51096    38.417854    -12338.89    1862.0811    1862.0811 
    1010    288.39847     37.24115    -12337.71    1886.6538    1886.6538 
    1020    280.69921    36.246937    -12336.71    1983.7625    1983.7625 
    1030    319.00657    41.193601   -12341.666    1995.2258    1995.2258 
    1040    324.65666    41.923202   -12342.395    2057.7067    2057.7067 
    1050    302.13175     39.01454   -12339.479    2134.3111    2134.3111 
    1060    311.17099    40.181785   -12340.653    2068.9437    2068.9437 
    1070    302.68732    39.086282   -12339.556     2007.181     2007.181 
    1080    284.41866    36.727234   -12337.191    1969.9102    1969.9102 
    1090    309.25401    39.934244   -12340.406    1826.6509    1826.6509 
    1100    304.69374    39.345372    -12339.82    1746.0033    1746.0033 
    1110    244.96996    31.633188   -12332.094    1872.9938    1872.9938 
    1120    259.62612    33.525751   -12333.988    1962.0269    1962.0269 
    1130    334.39444     43.18065   -12343.657    1971.6303    1971.6303 
    1140    335.64067    43.341577   -12343.813     2085.867     2085.867 
    1150    305.58511    39.460476   -12339.925    2143.6125    2143.6125 
    1160    309.45751    39.960522   -12340.431    2033.3749    2033.3749 
    1170    299.58409    38.685559   -12339.155    1955.1735    1955.1735 
    1180    281.35233    36.331275   -12336.797    1948.9535    1948.9535 
    1190    290.80546    37.551967   -12338.022    1908.1223    1908.1223 
    1200    292.77586    37.806405   -12338.276    1905.3218    1905.3218 
    1210    286.68531    37.019928   -12337.485    1988.9366    1988.9366 
    1220    313.99963     40.54705   -12341.015    2066.3531    2066.3531 
    1230      344.037    44.425802   -12344.899    2101.1894    2101.1894 
    1240    326.31407    42.137224   -12342.608    2109.2305    2109.2305 
    1250     287.9585    37.184336    -12337.65    2052.6297    2052.6297 
    1260    277.49031    35.832569   -12336.299    1923.8298    1923.8298 
    1270    290.96063    37.572003   -12338.042    1813.7737    1813.7737 
    1280    294.17487    37.987062   -12338.458    1800.2088    1800.2088 
    1290    276.52189    35.707517   -12336.175    1857.8062    1857.8062 
    1300    275.57385    35.585095   -12336.051    1896.0915    1896.0915 
    1310    304.69454    39.345475   -12339.815    1929.1903    1929.1903 
    1320    321.29908    41.489635   -12341.961    2029.2991    2029.2991 
    1330    307.72181     39.73639   -12340.204    2133.4099    2133.4099 
    1340    302.73725     39.09273    -12339.56    2098.4158    2098.4158 
    1350    310.01892    40.033018   -12340.505     1972.852     1972.852 
    1360     292.6528    37.790515   -12338.259    1939.0188    1939.0188 
    1370    280.40785    36.209314   -12336.674     1967.922     1967.922 
    1380    305.52436    39.452631   -12339.922    1968.0971    1968.0971 
    1390    328.02834     42.35859   -12342.831    1977.5236    1977.5236 
    1400    310.44428    40.087945   -12340.557    2040.9919    2040.9919 
    1410    290.79373    37.550451   -12338.016    2068.6779    2068.6779 
    1420     299.7702    38.709591    -12339.18     1981.345     1981.345 
    1430    295.56952    38.167154   -12338.639    1869.4282    1869.4282 
    1440    264.19585    34.115845   -12334.582    1836.5067    1836.5067 
    1450    259.96553    33.569579   -12334.034    1868.4796    1868.4796 
    1460     305.6008    39.462502   -12339.932    1918.2752    1918.2752 
    1470    345.42799    44.605422   -12345.079    2006.2096    2006.2096 
    1480    331.97124     42.86774   -12343.338    2140.7168    2140.7168 
    1490    301.87218    38.981022   -12339.447    2185.0508    2185.0508 
    1500    301.59644    38.945415   -12339.414    2043.9479    2043.9479 
    1510    303.55947    39.198903    -12339.67    1870.2228    1870.2228 
    1520    279.38859    36.077696   -12336.546    1826.8789    1826.8789 
    1530    264.80756    34.194834   -12334.659    1877.1938    1877.1938 
    1540    290.58456    37.523441   -12337.993    1934.1318    1934.1318 
    1550    314.96852    40.672164   -12341.143    2029.0047    2029.0047 
    1560     322.5172    41.646932   -12342.115    2103.7151    2103.7151 
    1570    327.43839     42.28241   -12342.753    2071.1426    2071.1426 
    1580    309.99544    40.029986   -12340.501     1986.551     1986.551 
    1590    270.81045    34.969993   -12335.436    1919.2488    1919.2488 
    1600     260.1789    33.597131   -12334.062    1857.3936    1857.3936 
    1610    288.75246     37.28686   -12337.757    1823.4873    1823.4873 
    1620    308.74225     39.86816   -12340.339    1876.9113    1876.9113 
    1630    309.40845    39.954187   -12340.423    1982.3123    1982.3123 
    1640    305.46646    39.445155   -12339.913     2095.083     2095.083 
    1650    311.41897    40.213807   -12340.681     2153.054     2153.054 
    1660    327.07308    42.235236   -12342.706    2112.5857    2112.5857 
    1670    320.42398    41.376632   -12341.848    2036.5306    2036.5306 
    1680    290.41507    37.501554   -12337.969    1951.6548    1951.6548 
    1690    274.25071    35.414237   -12335.882    1833.6949    1833.6949 
    1700    269.38284    34.785645   -12335.255    1761.2594    1761.2594 
    1710    266.00056    34.348888   -12334.815     1781.707     1781.707 
    1720    286.33093    36.974166   -12337.442    1829.3892    1829.3892 
    1730    309.83474    40.009234   -12340.482    1924.7919    1924.7919 
    1740    299.47755    38.671801   -12339.139     2114.447     2114.447 
    1750    310.44977    40.088653   -12340.553    2219.4288    2219.4288 
    1760    360.66252    46.572671   -12347.047     2145.489     2145.489 
    1770    348.84725    45.046954   -12345.521    2102.5012    2102.5012 
    1780      281.388    36.335882   -12336.799    2111.2092    2111.2092 
    1790     269.6698    34.822699   -12335.287    1997.3175    1997.3175 
    1800    301.48152    38.930576   -12339.403    1847.0861    1847.0861 
    1810    302.55806     39.06959    -12339.54    1811.9659    1811.9659 
    1820    285.57277    36.876264   -12337.344     1826.886     1826.886 
    1830    278.87312    36.011133   -12336.479     1854.055     1854.055 
    1840    283.34871     36.58907   -12337.056     1926.755     1926.755 
    1850     302.2013    39.023521   -12339.493    2003.8154    2003.8154 
    1860    315.35143     40.72161   -12341.192    2060.3859    2060.3859 
    1870    313.12986    40.434736   -12340.903    2075.9711    2075.9711 
    1880    314.85521    40.657531   -12341.127    2013.5893    2013.5893 
    1890    304.31886    39.296963   -12339.767    1955.5706    1955.5706 
    1900    281.07209    36.295087   -12336.761    1937.0218    1937.0218 
    1910    287.33505     37.10383   -12337.572    1864.6856    1864.6856 
    1920    296.49298    38.286401   -12338.759      1826.89      1826.89 
    1930    274.07433    35.391461   -12335.858    1927.7652    1927.7652 
    1940    277.84519    35.878395   -12336.343     2004.812     2004.812 
    1950    319.98288    41.319672   -12341.793    1988.9573    1988.9573 
    1960    323.80346    41.813027   -12342.284    2056.8627    2056.8627 
    1970    307.93063    39.763355   -12340.228    2139.9458    2139.9458 
    1980    323.54092    41.779125    -12342.25    2067.5555    2067.5555 
    1990    318.06621    41.072171   -12341.545    1979.8262    1979.8262 
    2000    276.01276    35.641772   -12336.106    1982.5568    1982.5568 
    2010    275.25489    35.543907    -12336.01    1918.1652    1918.1652 
    2020    302.48165    39.059723   -12339.532    1820.8389    1820.8389 
    2030    295.14746    38.112652   -12338.581    1864.7863    1864.7863 
    2040    285.12014    36.817816   -12337.283    1982.5372    1982.5372 
    2050    308.70564    39.863432   -12340.332    2043.5837    2043.5837 
    2060    329.80454    42.587952    -12343.06    2064.8624    2064.8624 
    2070    317.31177    40.974749   -12341.443      2072.52      2072.52 
    2080    300.79464    38.841878    -12339.31    2004.4914    2004.4914 
    2090    290.87282    37.560664    -12338.03    1910.0658    1910.0658 
    2100    280.65656     36.24143   -12336.709    1859.9279    1859.9279 
    2110    280.95145     36.27951   -12336.747    1839.2219    1839.2219 
    2120    289.57355    37.392888   -12337.862    1859.0867    1859.0867 
    2130    292.98908    37.833939   -12338.302     1934.804     1934.804 
    2140    299.56647    38.683283    -12339.15    1999.3606    1999.3606 
    2150    318.62289    41.144055   -12341.614    2010.9181    2010.9181 
    2160    318.98514    41.190834   -12341.662    2049.8048    2049.8048 
    2170    298.23073    38.510798   -12338.977    2097.8872    2097.8872 
    2180    303.47725    39.188286   -12339.656    2047.1934    2047.1934 
    2190    318.52847    41.131863   -12341.604    1975.3252    1975.3252 
    2200    299.31242    38.650478   -12339.119    1965.9167    1965.9167 
    2210    280.16596    36.178078   -12336.644    1912.4578    1912.4578 
    2220     285.8916    36.917435   -12337.388    1820.0806    1820.0806 
    2230    277.37105     35.81717   -12336.285    1846.0737    1846.0737 
    2240    276.98708    35.767587   -12336.232    1921.7539    1921.7539 
    2250    315.14575     40.69505   -12341.167    1943.9458    1943.9458 
    2260    325.10011    41.980465   -12342.453    2034.9241    2034.9241 
    2270    300.33427     38.78243   -12339.247    2147.3426    2147.3426 
    2280    313.65889    40.503051   -12340.972    2091.9692    2091.9692 
    2290     322.7389     41.67556    -12342.15    1997.1416    1997.1416 
    2300    280.00322    36.157064   -12336.621    1992.8619    1992.8619 
    2310    277.36263    35.816081    -12336.28    1914.8992    1914.8992 
    2320    317.00094    40.934612   -12341.409    1814.9696    1814.9696 
    2330    300.22708    38.768588   -12339.238    1890.4677    1890.4677 
    2340    275.41722     35.56487   -12336.028    1970.0979    1970.0979 
    2350      301.492    38.931929   -12339.403    1939.2035    1939.2035 
    2360    308.62636    39.853196   -12340.324    1975.5162    1975.5162 
    2370     294.5397    38.034172   -12338.499    2042.9935    2042.9935 
    2380    312.73118    40.383254   -12340.854    2011.7047    2011.7047 
    2390    312.41671    40.342647   -12340.813    2019.2588    2019.2588 
    2400    297.05406    38.358854   -12338.823    2048.3565    2048.3565 
    2410    320.90465    41.438701   -12341.911    1967.2205    1967.2205 
    2420    305.59367    39.461581   -12339.934    1957.7857    1957.7857 
    2430    258.43342    33.371736   -12333.832    1993.6705    1993.6705 
    2440    290.94022    37.569368   -12338.038    1858.7448    1858.7448 
    2450    318.60603    41.141879   -12341.619    1816.6516    1816.6516 
    2460    269.40763    34.788845    -12335.25    2010.6199    2010.6199 
    2470    287.38606    37.110416   -12337.574    2036.8404    2036.8404 
    2480    347.50519    44.873652   -12345.354    1941.6035    1941.6035 
    2490    301.35651    38.914432   -12339.381     2044.343     2044.343 
    2500    271.77939    35.095113   -12335.555    2026.5832    2026.5832 
    2510    320.44749    41.379668   -12341.858    1819.8994    1819.8994 
    2520    285.55176    36.873551   -12337.344    1870.8714    1870.8714 
    2530    240.76171    31.089773   -12331.546     1988.361     1988.361 
    2540    315.04566    40.682124   -12341.156    1887.0981    1887.0981 
    2550    343.19905    44.317597   -12344.795    1969.3557    1969.3557 
    2560    295.38307    38.143077   -12338.603    2196.5734    2196.5734 
    2570    324.21055    41.865595   -12342.337    2123.3197    2123.3197 
    2580    332.51092     42.93743   -12343.415    2037.1967    2037.1967 
    2590    267.22412    34.506886   -12334.966    2114.0385    2114.0385 
    2600    291.90954    37.694537    -12338.16    1971.3285    1971.3285 
    2610    341.23401    44.063849   -12344.545    1800.5582    1800.5582 
    2620    278.24476    35.929992   -12336.394    1932.1429    1932.1429 
    2630    255.34904    32.973448   -12333.434    1956.2383    1956.2383 
    2640     312.4412    40.345808   -12340.823    1800.4091    1800.4091 
    2650    293.24022    37.866369   -12338.336    1883.7203    1883.7203 
    2660    267.61389    34.557218   -12335.018    1998.4464    1998.4464 
    2670    311.40742    40.212315   -12340.687    1949.9106    1949.9106 
    2680    307.56974    39.716753   -12340.187    2062.9208    2062.9208 
    2690    293.76589    37.934249   -12338.395    2196.2447    2196.2447 
    2700    352.71255    45.546084   -12346.021    2053.7304    2053.7304 
    2710    347.36629    44.855717   -12345.332    1981.5969    1981.5969 
    2720    267.18913    34.502369   -12334.963    2043.5315    2043.5315 
    2730    263.07044    33.970519   -12334.436    1884.2528    1884.2528 
    2740    289.78812    37.420596   -12337.895    1718.8312    1718.8312 
    2750    267.34313    34.522255   -12334.987    1848.7797    1848.7797 
    2760    284.99127    36.801175   -12337.266    1972.9301    1972.9301 
    2770    335.82968    43.365984   -12343.841    1979.9547    1979.9547 
    2780    326.89752    42.212566   -12342.682    2077.9892    2077.9892 
    2790    303.02094    39.129362   -12339.595    2143.4508    2143.4508 
    2800    303.94189    39.248286   -12339.719    2064.5669    2064.5669 
    2810    293.56312    37.908066   -12338.376    2007.9723    2007.9723 
    2820    291.62896    37.658306   -12338.125    1967.4853    1967.4853 
    2830    302.99808     39.12641   -12339.598    1886.4476    1886.4476 
    2840    288.35918    37.236077   -12337.703    1893.9341    1893.9341 
    2850    292.27362    37.741552   -12338.207    1915.5359    1915.5359 
    2860    320.59305    41.398464   -12341.873    1861.4387    1861.4387 
    2870    291.00074    37.577182   -12338.047    1920.9205    1920.9205 
    2880    254.72645    32.893052   -12333.352    2065.7792    2065.7792 
    2890    310.42809    40.085853   -12340.555    2043.0293    2043.0293 
    2900    358.37181    46.276869   -12346.756    1982.8387    1982.8387 
    2910    308.60547    39.850498   -12340.318    2064.6719    2064.6719 
    2920    270.28989    34.902772   -12335.365    2055.6758    2055.6758 
    2930    292.26341    37.740233   -12338.212    1883.3204    1883.3204 
    2940    290.56139     37.52045    -12337.99    1819.2177    1819.2177 
    2950    279.41904    36.081628   -12336.546    1887.9829    1887.9829 
    2960    308.97983    39.898839    -12340.37     1934.639     1934.639 
    2970    317.21144    40.961794   -12341.433    2026.0771    2026.0771 
    2980     298.3602    38.527517   -12338.992    2144.1842    2144.1842 
    2990    317.73245    41.029072   -12341.498    2126.7035    2126.7035 
    3000     332.2756    42.907042   -12343.382    2041.7753    2041.7753 
    3010    292.24213    37.737485   -12338.204    2010.2659    2010.2659 
    3020    271.54158    35.064404   -12335.529    1933.8377    1933.8377 
    3030    292.56269    37.778879    -12338.25    1827.1276    1827.1276 
    3040    295.67495    38.180769    -12338.65    1823.1765    1823.1765 
    3050    292.35849     37.75251    -12338.22    1871.2887    1871.2887 
    3060    299.01297    38.611809   -12339.083    1919.6597    1919.6597 
    3070    289.14554     37.33762   -12337.805    2009.3148    2009.3148 
    3080    297.02678    38.355331   -12338.822    2047.3457    2047.3457 
    3090    324.46492    41.898443   -12342.372    2016.5331    2016.5331 
    3100    303.97943    39.253132   -12339.722    2038.7087    2038.7087 
    3110    281.09035    36.297445    -12336.76    2005.5969    2005.5969 
    3120    310.36389    40.077564    -12340.55    1858.4301    1858.4301 
    3130    308.26898    39.807046    -12340.28    1842.0262    1842.0262 
    3140    272.19455    35.148723   -12335.611    1951.9861    1951.9861 
    3150    293.87047    37.947753   -12338.417     1973.752     1973.752 
    3160    314.98681    40.674525   -12341.148    2033.4959    2033.4959 
    3170    291.86298    37.688524   -12338.152    2165.2613    2165.2613 
    3180    314.79582    40.649863   -12341.117    2118.7203    2118.7203 
    3190     351.5855    45.400547   -12345.878    1981.3711    1981.3711 
    3200    304.32829    39.298182   -12339.767    1979.0509    1979.0509 
    3210    254.79242     32.90157   -12333.363    1946.7829    1946.7829 
    3220    277.84757    35.878703   -12336.349    1814.0046    1814.0046 
    3230    292.38203     37.75555   -12338.226    1833.5017    1833.5017 
    3240    288.79129    37.291875   -12337.758    1952.3923    1952.3923 
    3250    308.23894    39.803167   -12340.274    1995.9444    1995.9444 
    3260     312.6571    40.373689   -12340.844    2049.4156    2049.4156 
    3270    304.30937    39.295738   -12339.761    2097.7055    2097.7055 
    3280    322.36651    41.627473   -12342.098    2035.7711    2035.7711 
    3290     322.3592    41.626529     -12342.1     1981.791     1981.791 
    3300     281.9185    36.404386    -12336.87    1992.8033    1992.8033 
    3310    271.41461    35.048009   -12335.514    1926.4401    1926.4401 
    3320    291.68469    37.665502   -12338.136    1860.4698    1860.4698 
    3330    296.11116    38.237096   -12338.705    1928.5461    1928.5461 
    3340    306.81841    39.619733   -12340.088     1979.844     1979.844 
    3350    316.35046    40.850615   -12341.323    1969.8536    1969.8536 
    3360    291.21022    37.604234   -12338.071    2029.7293    2029.7293 
    3370    284.78639    36.774718   -12337.239     2057.554     2057.554 
    3380    322.35179    41.625572   -12342.098    1957.5645    1957.5645 
    3390    320.73872    41.417274   -12341.891    1932.5041    1932.5041 
    3400    270.49426    34.929164   -12335.392    2022.4764    2022.4764 
    3410    276.59229    35.716607   -12336.182    1974.1597    1974.1597 
    3420     319.4405    41.249634   -12341.724    1876.5935    1876.5935 
    3430     307.4602    39.702608   -12340.172    1961.8988    1961.8988 
    3440     285.4228    36.856899   -12337.321    2062.1009    2062.1009 
    3450    306.36332    39.560967   -12340.032    2014.0139    2014.0139 
    3460    310.48006    40.092565   -12340.564    1983.8993    1983.8993 
    3470    291.70523    37.668154   -12338.133    2000.5885    2000.5885 
    3480    303.73691    39.221815   -12339.692    1924.3699    1924.3699 
    3490    302.62447    39.078166   -12339.551    1877.7079    1877.7079 
    3500    267.00535    34.478637   -12334.943    1956.3999    1956.3999 
    3510    276.00844    35.641214   -12336.106    2004.0962    2004.0962 
    3520    322.68887    41.669099   -12342.143    2020.1955    2020.1955 
    3530    327.68029    42.313646   -12342.783    2118.8239    2118.8239 
    3540      320.635    41.403881   -12341.871    2145.0087    2145.0087 
    3550    325.51246    42.033712   -12342.506     2035.315     2035.315 
    3560    297.93479    38.472583   -12338.941    1954.9463    1954.9463 
    3570    271.56997    35.068071   -12335.533    1888.1027    1888.1027 
    3580    282.10831    36.428896   -12336.899    1811.4372    1811.4372 
    3590    283.13302    36.561217   -12337.031    1884.4556    1884.4556 
    3600    282.40351    36.467016   -12336.932    2053.0984    2053.0984 
    3610    318.28834    41.100855   -12341.572    2088.5017    2088.5017 
    3620    334.82063    43.235684   -12343.709    2035.9397    2035.9397 
    3630    307.55778    39.715209   -12340.182    2007.5671    2007.5671 
    3640    295.28889    38.130916   -12338.599    1943.3446    1943.3446 
    3650    291.08629     37.58823   -12338.059    1882.0289    1882.0289 
    3660    275.18918    35.535423   -12336.002    1895.5516    1895.5516 
    3670    283.18737    36.568236   -12337.036    1918.1303    1918.1303 
    3680    302.09746    39.010112   -12339.481    1941.4567    1941.4567 
    3690    297.73977      38.4474   -12338.916    2009.5176    2009.5176 
    3700    297.46593    38.412039   -12338.879    2042.0214    2042.0214 
    3710    314.54316    40.617236   -12341.088    1979.3837    1979.3837 
    3720    309.00705    39.902354   -12340.373    1953.4827    1953.4827 
    3730    286.42578    36.986414   -12337.452    2044.0288    2044.0288 
    3740     297.4772    38.413494    -12338.88     2110.749     2110.749 
    3750    331.71862    42.835119   -12343.308    2058.7165    2058.7165 
    3760    322.69649    41.670083   -12342.143    2007.3536    2007.3536 
    3770    275.41081    35.564041   -12336.029    1989.6296    1989.6296 
    3780    270.76397    34.963991   -12335.428    1885.7932    1885.7932 
    3790    308.79583    39.875079   -12340.349    1790.5807    1790.5807 
    3800    303.55824    39.198745    -12339.67    1918.9771    1918.9771 
    3810     281.0987    36.298524   -12336.761    2091.9325    2091.9325 
    3820    313.90808    40.535228   -12341.005    2077.9005    2077.9005 
    3830    336.81682    43.493454   -12343.968    2065.6094    2065.6094 
    3840    307.87014    39.755544   -12340.222    2125.4968    2125.4968 
    3850    300.49252    38.802865   -12339.271    2027.0659    2027.0659 
    3860    301.25451    38.901262   -12339.374    1864.6259    1864.6259 
    3870    268.35266    34.652616   -12335.118    1835.2851    1835.2851 
    3880    265.05818    34.227197   -12334.693    1813.4979    1813.4979 
    3890    291.13119    37.594028   -12338.067     1818.118     1818.118 
    3900    285.31384    36.842829    -12337.31    1972.7434    1972.7434 
    3910    295.98352    38.220614   -12338.685    2061.3521    2061.3521 
    3920    340.30342    43.943681   -12344.419    2003.9217    2003.9217 
    3930    323.35371     41.75495   -12342.225    2088.5815    2088.5815 
    3940    291.49676    37.641235   -12338.103    2191.1246    2191.1246 
    3950    324.23797    41.869136   -12342.341    2061.1296    2061.1296 
    3960    324.98163    41.965166    -12342.44     1955.029     1955.029 
    3970    265.26862    34.254372   -12334.717    1979.4343    1979.4343 
    3980    265.53111    34.288267   -12334.753    1865.2885    1865.2885 
    3990    306.73197    39.608571   -12340.084    1730.2426    1730.2426 
    4000    286.00026    36.931467     -12337.4    1855.6233    1855.6233 
    4010    271.02714    34.997974   -12335.461      1987.88      1987.88 
    4020    314.18656    40.571188   -12341.044    1967.1675    1967.1675 
    4030    325.49257    42.031144   -12342.503    2053.8255    2053.8255 
    4040    304.56785    39.329116   -12339.793    2180.5636    2180.5636 
    4050    321.99215    41.579131    -12342.05    2091.1902    2091.1902 
    4060    320.56655    41.395042   -12341.869    1988.5493    1988.5493 
    4070    274.57468    35.456071    -12335.92    2006.9986    2006.9986 
    4080    274.12117    35.397509   -12335.863    1928.2911    1928.2911 
    4090    309.54666    39.972034   -12340.446    1820.5721    1820.5721 
    4100    294.59543    38.041368   -12338.511    1925.8816    1925.8816 
    4110    276.53801    35.709598   -12336.172    2053.7775    2053.7775 
    4120    321.62852    41.532176   -12342.004    1997.2863    1997.2863 
    4130    338.27415    43.681641   -12344.157    1996.2454    1996.2454 
    4140    291.08184    37.587656   -12338.053    2098.7231    2098.7231 
    4150    279.40084    36.079278   -12336.544    2059.2524    2059.2524 
    4160     308.2035    39.798591   -12340.271    1951.2287    1951.2287 
    4170    303.37148    39.174627   -12339.644    1950.0045    1950.0045 
    4180    288.42164    37.244142   -12337.711    1914.8937    1914.8937 
    4190    290.59838    37.525226   -12337.996    1833.3449    1833.3449 
    4200    280.74858    36.253312    -12336.72    1884.8286    1884.8286 
    4210    289.63372    37.400659   -12337.866    1965.6463    1965.6463 
    4220    326.42419    42.151444   -12342.624    1986.0893    1986.0893 
    4230    323.24488    41.740897   -12342.212    2096.5846    2096.5846 
    4240    297.88584    38.466262   -12338.931    2194.5795    2194.5795 
    4250    311.31727    40.200675   -12340.671    2084.9143    2084.9143 
    4260    308.15214    39.791958   -12340.265    1961.8326    1961.8326 
    4270    267.82026    34.583867   -12335.048    1916.4375    1916.4375 
    4280    272.55192     35.19487   -12335.662    1761.2152    1761.2152 
    4290    294.88565    38.078844   -12338.554     1668.875     1668.875 
    4300    263.58953     34.03755   -12334.502    1905.7176    1905.7176 
    4310    276.27418    35.675529   -12336.136    2131.2022    2131.2022 
    4320    363.80416    46.978353   -12347.456    2104.7099    2104.7099 
    4330    366.51801    47.328795   -12347.805    2148.9817    2148.9817 
    4340    290.72827    37.541999   -12338.002    2249.8481    2249.8481 
    4350    292.98075    37.832863   -12338.298    2087.6814    2087.6814 
    4360    327.55532    42.297508   -12342.775    1874.1124    1874.1124 
    4370    280.67808    36.244208   -12336.711         1922         1922 
    4380    255.26712     32.96287   -12333.424    1948.4148    1948.4148 
    4390    303.65306    39.210989   -12339.685     1841.013     1841.013 
    4400    305.17327    39.407294   -12339.879    1902.9643    1902.9643 
    4410    279.84168    36.136204   -12336.598    2009.4398    2009.4398 
    4420     315.4424    40.733356   -12341.205    1922.4206    1922.4206 
    4430    320.60327    41.399783   -12341.875     1917.635     1917.635 
    4440    264.29756    34.128978    -12334.59    2070.7532    2070.7532 
    4450     282.7163    36.507405   -12336.973     2035.095     2035.095 
    4460    336.25457    43.420851   -12343.898     1939.228     1939.228 
    4470     310.1123    40.045075   -12340.513    2036.4527    2036.4527 
    4480    289.19531    37.344047   -12337.808     2046.828     2046.828 
    4490    308.63832    39.854739   -12340.329    1916.2282    1916.2282 
    4500    283.05857    36.551604   -12337.019    1943.8541    1943.8541 
    4510    276.73008      35.7344   -12336.197    1972.6711    1972.6711 
    4520    328.86143    42.466168   -12342.942    1857.3315    1857.3315 
    4530    313.39321    40.468743   -12340.942    1896.6827    1896.6827 
    4540    258.92086     33.43468   -12333.894    2046.8493    2046.8493 
    4550    293.05588    37.842565   -12338.311     2012.555     2012.555 
    4560    329.49274    42.547689   -12343.024    2003.1638    2003.1638 
    4570     301.8768    38.981618   -12339.445     2132.818     2132.818 
    4580    315.46965    40.736876   -12341.205    2069.5596    2069.5596 
    4590    335.31898    43.300036   -12343.777    1903.2625    1903.2625 
    4600    279.37948     36.07652   -12336.542    1913.7111    1913.7111 
    4610    256.13966    33.075541   -12333.538    1891.5798    1891.5798 
    4620    293.83179    37.942759   -12338.417    1788.5701    1788.5701 
    4630     285.2888    36.839595   -12337.308    1896.8296    1896.8296 
    4640    276.88606    35.754542   -12336.217    2084.2438    2084.2438 
    4650    328.53631    42.424184   -12342.896    2110.6735    2110.6735 
    4660    349.56803    45.140029   -12345.614    2117.2165    2117.2165 
    4670    313.25104    40.450384   -12340.917    2143.8705    2143.8705 
    4680    294.33479    38.007712   -12338.475    2027.0081    2027.0081 
    4690    291.55703    37.649017   -12338.119    1861.7568    1861.7568 
    4700    278.60422     35.97641   -12336.444    1807.7643    1807.7643 
    4710    276.08375    35.650939   -12336.119    1808.6948    1808.6948 
    4720    281.87911    36.399299   -12336.867      1850.56      1850.56 
    4730     297.3164    38.392729   -12338.861    1964.4299    1964.4299 
    4740    317.95395    41.057674   -12341.528    2113.7411    2113.7411 
    4750    321.44351    41.508285   -12341.977    2202.8723    2202.8723 
    4760    324.55528     41.91011   -12342.379    2142.9585    2142.9585 
    4770    326.36279    42.143515   -12342.616     2015.284     2015.284 
    4780    293.17814    37.858353   -12338.327    1960.3439    1960.3439 
    4790    262.92305    33.951486   -12334.415     1925.414     1925.414 
    4800    287.57339    37.134606   -12337.604    1815.4024    1815.4024 
    4810    303.47038    39.187399   -12339.661    1775.7188    1775.7188 
    4820    274.28688    35.418908   -12335.884    1908.9791    1908.9791 
    4830    278.84636    36.007677   -12336.473    2031.5697    2031.5697 
    4840    321.56796    41.524355   -12341.997    2041.2947    2041.2947 
    4850    329.37605    42.532621   -12343.004    2027.4922    2027.4922 
    4860    303.41596    39.180372   -12339.648    2025.9738    2025.9738 
    4870    289.45924    37.378128   -12337.845    2002.2537    2002.2537 
    4880    295.00721    38.094543   -12338.563    1959.5105    1959.5105 
    4890    304.68542    39.344298   -12339.815    1934.5062    1934.5062 
    4900    298.75792    38.578875   -12339.049    1966.8424    1966.8424 
    4910    285.24757    36.834271     -12337.3    2020.9679    2020.9679 
    4920    298.23038    38.510752   -12338.979    2013.2178    2013.2178 
    4930     315.9131    40.794138   -12341.265    2001.1006    2001.1006 
    4940    312.73945    40.384322   -12340.853    2019.5204    2019.5204 
    4950    308.31455    39.812931   -12340.282    1991.1694    1991.1694 
    4960    298.88121    38.594796   -12339.065      1940.89      1940.89 
    4970    277.78633    35.870795   -12336.337    1938.1112    1938.1112 
    4980    282.56455     36.48781   -12336.955    1938.8882    1938.8882 
    4990    302.61461    39.076893   -12339.548    1961.2834    1961.2834 
    5000    300.21552    38.767096   -12339.235    2030.0924    2030.0924 
    5010    308.71627    39.864805   -12340.333    2023.9198    2023.9198 
    5020    324.52901    41.906718   -12342.379    1988.6878    1988.6878 
    5030    305.21535    39.412728   -12339.881    2042.2161    2042.2161 
    5040    288.97562    37.315677   -12337.781    2046.4869    2046.4869 
    5050    304.95442    39.379034   -12339.851    1914.2892    1914.2892 
    5060    291.99718    37.705855   -12338.177    1855.8464    1855.8464 
    5070    262.71345    33.924421   -12334.388    1915.6541    1915.6541 
    5080    287.75778    37.158417   -12337.626    1934.4503    1934.4503 
    5090    323.42846    41.764603   -12342.238    1957.1279    1957.1279 
    5100    317.99969    41.063581   -12341.533    2021.5831    2021.5831 
    5110    304.68852    39.344699   -12339.814    2019.5889    2019.5889 
    5120    290.54307    37.518084   -12337.987    2005.4242    2005.4242 
    5130    279.23345    36.057662   -12336.523    2029.8992    2029.8992 
    5140     304.3385      39.2995   -12339.769    1977.4517    1977.4517 
    5150    322.75535    41.677684   -12342.151    1930.4193    1930.4193 
    5160    296.74737    38.319251   -12338.786    2005.2929    2005.2929 
    5170    290.67816    37.535527   -12338.001    2041.4768    2041.4768 
    5180    318.05788    41.071095   -12341.544    1977.3699    1977.3699 
    5190    305.25183    39.417439   -12339.888     1982.356     1982.356 
    5200    277.45125    35.827526   -12336.291     1990.701     1990.701 
    5210    295.29805    38.132099   -12338.602     1886.267     1886.267 
    5220    304.88177    39.369652   -12339.842    1860.5019    1860.5019 
    5230    283.11946    36.559466   -12337.025    1953.6107    1953.6107 
    5240    287.84677    37.169908   -12337.637    1964.9814    1964.9814 
    5250    311.57911    40.234486   -12340.706    1938.1934    1938.1934 
    5260    310.43284    40.086467   -12340.556    2005.2765    2005.2765 
    5270    300.84859    38.848845   -12339.317     2056.319     2056.319 
    5280    300.10426    38.752729   -12339.222    2032.1003    2032.1003 
    5290    299.84314     38.71901   -12339.187    2030.2979    2030.2979 
    5300     308.3057    39.811788    -12340.28    2035.7578    2035.7578 
    5310    316.95848     40.92913     -12341.4    2009.6982    2009.6982 
    5320    305.18194    39.408414   -12339.877    2015.0035    2015.0035 
    5330    297.95182    38.474783   -12338.942    2001.7049    2001.7049 
    5340    302.19377    39.022549   -12339.493    1925.2683    1925.2683 
    5350    287.63172    37.142138   -12337.611    1906.1314    1906.1314 
    5360    273.37259    35.300844   -12335.766    1948.4978    1948.4978 
    5370    293.33934    37.879169   -12338.349    1912.6432    1912.6432 
    5380    305.42677    39.440029   -12339.912    1889.4006    1889.4006 
    5390    287.45271    37.119022   -12337.586    1997.4974    1997.4974 
    5400     292.3991    37.757754   -12338.223    2070.2045    2070.2045 
    5410    326.20905    42.123663   -12342.596    2007.6253    2007.6253 
    5420    321.22912      41.4806   -12341.953    2002.8902    2002.8902 
    5430    286.60701    37.009817   -12337.474    2064.3768    2064.3768 
    5440    295.85955    38.204605   -12338.673    1971.1878    1971.1878 
    5450    313.61593    40.497502   -12340.971    1857.3506    1857.3506 
    5460    286.54566    37.001894   -12337.469    1927.1348    1927.1348 
    5470    271.71125    35.086314    -12335.55    1997.4463    1997.4463 
    5480    302.78213    39.098525    -12339.57    1939.0337    1939.0337 
    5490    307.83754    39.751334   -12340.223    1969.1691    1969.1691 
    5500    291.04361     37.58272   -12338.047    2055.7762    2055.7762 
    5510    314.50509     40.61232   -12341.082    1987.2385    1987.2385 
    5520    322.54007    41.649885   -12342.124     1936.048     1936.048 
    5530    280.41957    36.210828   -12336.675    2035.1635    2035.1635 
    5540    286.15981    36.952069   -12337.417    2023.8265    2023.8265 
    5550    327.83815    42.334031    -12342.81    1936.6075    1936.6075 
    5560    307.58584    39.718831   -12340.188     2021.899     2021.899 
    5570    284.09403    36.685313   -12337.149    2074.1652    2074.1652 
    5580     310.1691     40.05241   -12340.525    1965.2024    1965.2024 
    5590    304.47359    39.316945   -12339.787    1973.8856    1973.8856 
    5600    285.74263    36.898199    -12337.36    2043.4524    2043.4524 
    5610    323.27719     41.74507   -12342.218    1928.6354    1928.6354 
    5620    318.03908    41.068667   -12341.544    1892.7272    1892.7272 
    5630    255.44992    32.986474   -12333.447    2010.9429    2010.9429 
    5640    272.59725    35.200724   -12335.667    1937.8674    1937.8674 
    5650    316.99087    40.933312   -12341.411    1819.8291    1819.8291 
    5660    279.22027     36.05596   -12336.521    1948.8905    1948.8905 
    5670    278.61234    35.977458   -12336.439    1985.1366    1985.1366 
    5680    343.26424    44.326015   -12344.805    1838.1315    1838.1315 
    5690    316.12566    40.821586   -12341.294    1949.0123    1949.0123 
    5700    259.71596    33.537352   -12333.995     2155.633     2155.633 
    5710     307.8358    39.751109   -12340.222    2075.0742    2075.0742 
    5720     339.2517    43.807872   -12344.285    2025.3551    2025.3551 
    5730    295.35653     38.13965   -12338.602     2151.167     2151.167 
    5740    304.04338     39.26139   -12339.729    2048.4528    2048.4528 
    5750    325.17452    41.990073   -12342.468     1825.984     1825.984 
    5760    266.55411    34.420368   -12334.885    1847.0646    1847.0646 
    5770    244.18852     31.53228   -12331.993    1885.6374    1885.6374 
    5780    300.43317    38.795201   -12339.269    1821.8386    1821.8386 
    5790    311.86984    40.272029   -12340.743    1945.5324    1945.5324 
    5800    298.11057    38.495282   -12338.958    2128.4776    2128.4776 
    5810    334.60043    43.207249   -12343.679    2090.4855    2090.4855 
    5820    339.57293    43.849353   -12344.324    2039.3668    2039.3668 
    5830    287.90046    37.176841   -12337.641    2077.3916    2077.3916 
    5840     278.9089    36.015754   -12336.482    1968.2296    1968.2296 
    5850    297.26316    38.385854   -12338.859    1827.0475    1827.0475 
    5860    282.12547    36.431111   -12336.898    1907.4788    1907.4788 
    5870    285.25308    36.834983     -12337.3    2018.0742    2018.0742 
    5880    321.84753    41.560457   -12342.033    1999.7325    1999.7325 
    5890    324.30814    41.878197   -12342.349    2010.7307    2010.7307 
    5900    300.19451    38.764382   -12339.231     2031.376     2031.376 
    5910    292.15612    37.726378   -12338.196     1949.822     1949.822 
    5920    279.20765    36.054331   -12336.523    1916.9464    1916.9464 
    5930    274.72776    35.475839   -12335.941    1962.6191    1962.6191 
    5940    307.25777    39.676468   -12340.147    1938.7851    1938.7851 
    5950    320.86184    41.433174   -12341.906    1940.7781    1940.7781 
    5960    296.25221    38.255309   -12338.721    2049.4668    2049.4668 
    5970    302.84941    39.107213   -12339.573    2062.9042    2062.9042 
    5980    331.73628    42.837399   -12343.312    1959.9452    1959.9452 
    5990    302.13306    39.014709   -12339.485    1975.0926    1975.0926 
    6000    259.21737    33.472968   -12333.935    2021.3778    2021.3778 
    6010    282.79218    36.517204   -12336.986    1916.0481    1916.0481 
    6020    308.71138    39.864174   -12340.338    1865.1112    1865.1112 
    6030    288.25574    37.222719   -12337.688    1969.4127    1969.4127 
    6040    296.55259    38.294098   -12338.761    1961.7806    1961.7806 
    6050    322.89501    41.695719    -12342.17    1901.4244    1901.4244 
    6060    295.36936    38.141307   -12338.609    2029.9104    2029.9104 
    6070    279.58346    36.102859   -12336.565    2122.5964    2122.5964 
    6080    326.39613    42.147821    -12342.62    2001.6238    2001.6238 
    6090    336.99786    43.516832   -12343.992    1949.0786    1949.0786 
    6100    286.30752    36.971143   -12337.435    2036.3023    2036.3023 
    6110    279.30503    36.066905   -12336.533    2000.8727    2000.8727 
    6120    302.77398    39.097472    -12339.57    1939.9705    1939.9705 
    6130    295.91574    38.211861    -12338.68    2002.2014    2002.2014 
    6140    294.75514    38.061993   -12338.529    2029.2415    2029.2415 
    6150    311.03018    40.163602   -12340.635    1991.4832    1991.4832 
    6160    307.56758    39.716473   -12340.185     1996.319     1996.319 
    6170    304.79483    39.358426   -12339.826    1953.9178    1953.9178 
    6180    306.34985    39.559227   -12340.031    1865.1663    1865.1663 
    6190    280.71949    36.249556   -12336.717    1878.6036    1878.6036 
    6200    272.93598    35.244465    -12335.71    1898.7893    1898.7893 
    6210    294.30939    38.004432   -12338.476    1900.0696    1900.0696 
    6220    291.49378    37.640849   -12338.108    2038.5647    2038.5647 
    6230     303.4076    39.179291   -12339.644    2143.1472    2143.1472 
    6240    349.09866    45.079419   -12345.555    2039.5687    2039.5687 
    6250    329.81114    42.588805   -12343.062    1980.1621    1980.1621 
    6260    265.37868    34.268583    -12334.73    2018.1766    2018.1766 
    6270    272.06616    35.132145   -12335.599    1913.2005    1913.2005 
    6280     301.0482    38.874621    -12339.35    1791.0663    1791.0663 
    6290    276.40732    35.692721   -12336.158    1876.9462    1876.9462 
    6300    282.45043    36.473074   -12336.938    1970.1242    1970.1242 
    6310    324.05315    41.845271   -12342.319    2004.3067    2004.3067 
    6320    318.72347    41.157044   -12341.625    2111.1069    2111.1069 
    6330    313.10006    40.430888   -12340.897    2123.1853    2123.1853 
    6340    330.14562    42.631997   -12343.106    1983.7083    1983.7083 
    6350    296.51923    38.289791   -12338.759     1956.963     1956.963 
    6360    264.02533    34.093825   -12334.555    2001.1378    2001.1378 
    6370    299.41354    38.663536   -12339.135    1929.0659    1929.0659 
    6380    311.90202    40.276184   -12340.749    1908.7336    1908.7336 
    6390    283.61631    36.623625   -12337.088    1976.6967    1976.6967 
    6400    295.18035      38.1169   -12338.585    1946.1291    1946.1291 
    6410     314.3119    40.587374   -12341.061    1907.5636    1907.5636 
    6420    292.77835    37.806727   -12338.273    1993.8141    1993.8141 
    6430    290.88156    37.561794   -12338.028    2034.2872    2034.2872 
    6440    310.18795    40.054844   -12340.527    1993.1424    1993.1424 
    6450    303.30893    39.166551   -12339.635    2006.1504    2006.1504 
    6460    299.82745    38.716984   -12339.185    2001.8042    2001.8042 
    6470     305.0207    39.387593   -12339.859    1921.4725    1921.4725 
    6480    286.65764    37.016354   -12337.484    1874.4658    1874.4658 
    6490    278.11642     35.91342   -12336.379    1890.1436    1890.1436 
    6500    297.61297    38.431026   -12338.901    1962.5225    1962.5225 
    6510    305.60625    39.463205   -12339.932    2106.8133    2106.8133 
    6520    316.15489    40.825361   -12341.292     2188.137     2188.137 
    6530    343.25771    44.325172   -12344.798    2107.0051    2107.0051 
    6540    325.27302    42.002794   -12342.475    2010.5905    2010.5905 
    6550    273.77596    35.352932   -12335.817    1951.6736    1951.6736 
    6560    267.22941     34.50757   -12334.973    1838.9748    1838.9748 
    6570    291.05217    37.583825   -12338.056    1741.0449    1741.0449 
    6580    281.05744    36.293195   -12336.763    1801.6521    1801.6521 
    6590    263.01677    33.963588   -12334.427    1953.9079    1953.9079 
    6600     298.9778    38.607269   -12339.075    2022.6956    2022.6956 
    6610    345.34918    44.595246    -12345.07    2031.6605    2031.6605 
    6620    327.75542    42.323347   -12342.795    2083.8533    2083.8533 
    6630    282.15396    36.434791   -12336.898    2127.3292    2127.3292 
    6640    292.98655    37.833613     -12338.3    2050.6216    2050.6216 
    6650      327.317    42.266733   -12342.741    1950.7331    1950.7331 
    6660    309.61473    39.980824   -12340.451     1972.364     1972.364 
    6670    280.20257    36.182806   -12336.647    2005.6672    2005.6672 
    6680     295.1476    38.112671   -12338.583    1919.8353    1919.8353 
    6690    301.36453    38.915469   -12339.387    1872.4954    1872.4954 
    6700    278.99751    36.027195   -12336.493    1950.9276    1950.9276 
    6710    289.81475    37.424035   -12337.891    1980.0425    1980.0425 
    6720    318.74334     41.15961   -12341.633    1934.1422    1934.1422 
    6730    307.25945    39.676684   -12340.146    1969.8255    1969.8255 
    6740    289.56963    37.392383   -12337.858    2037.1471    2037.1471 
    6750    304.44678    39.313482   -12339.783    2010.7211    2010.7211 
    6760     312.3079    40.328596     -12340.8    1977.7032    1977.7032 
    6770    298.31931    38.522237    -12338.99    2005.8093    2005.8093 
    6780    293.13631    37.852952   -12338.321    2020.7233    2020.7233 
    6790    296.85004    38.332509   -12338.802    2014.5506    2014.5506 
    6800    296.92696    38.342441    -12338.81    2029.9101    2029.9101 
    6810     309.5066    39.966861   -12340.436    1994.6428    1994.6428 
    6820    318.18854    41.087968    -12341.56    1915.5794    1915.5794 
    6830    298.88078     38.59474   -12339.064    1889.1694    1889.1694 
    6840     277.4398    35.826047   -12336.292     1900.293     1900.293 
    6850    281.29707     36.32414   -12336.793    1882.5037    1882.5037 
    6860    289.15693    37.339091   -12337.809    1893.6098    1893.6098 
    6870    283.73648    36.639143   -12337.106    1983.2663    1983.2663 
    6880    293.18071    37.858684   -12338.326    2038.5594    2038.5594 
    6890    321.37198    41.499048   -12341.969    2028.5591    2028.5591 
    6900     332.2135    42.899023    -12343.37    2050.9828    2050.9828 
    6910    317.63503    41.016493   -12341.485    2085.2749    2085.2749 
    6920    307.18655    39.667271   -12340.136    2035.2871    2035.2871 
    6930    298.57383    38.555102   -12339.025    1976.4349    1976.4349 
    6940    283.19801     36.56961   -12337.037     1970.128     1970.128 
    6950     283.8945    36.659549   -12337.127    1923.5002    1923.5002 
    6960    299.37932    38.659116    -12339.13     1850.157     1850.157 
    6970    297.02482    38.355077   -12338.825    1872.9984    1872.9984 
    6980    285.57263    36.876247   -12337.343    1945.7953    1945.7953 
    6990    297.55754    38.423868   -12338.893    1955.8183    1955.8183 
    7000    307.70041    39.733626   -12340.205    1989.6266    1989.6266 
    7010    297.16553    38.373248    -12338.84    2074.5914    2074.5914 
    7020    301.64873    38.952167   -12339.419    2066.5641    2066.5641 
    7030    319.49289      41.2564   -12341.729    1971.1174    1971.1174 
    7040    304.37717    39.304493   -12339.774    1948.0907    1948.0907 
    7050    284.28408    36.709855   -12337.175    1960.4946    1960.4946 
    7060    298.09072    38.492718   -12338.962    1940.4723    1940.4723 
    7070    311.17215    40.181935   -12340.653    1970.3644    1970.3644 
    7080    303.08523    39.137664   -12339.605    2042.9936    2042.9936 
    7090    305.71123    39.476762   -12339.945    2034.8207    2034.8207 
    7100    306.81547    39.619353   -12340.091    1995.8079    1995.8079 
    7110     286.0063    36.932246   -12337.399    2007.2208    2007.2208 
    7120     288.3212    37.231171   -12337.698    1964.8828    1964.8828 
    7130    308.30387    39.811551   -12340.283    1897.5832    1897.5832 
    7140    297.72746    38.445811   -12338.916    1925.1589    1925.1589 
    7150    277.76101    35.867524   -12336.333    1975.4047    1975.4047 
    7160    290.00871    37.449082   -12337.918    1944.6319    1944.6319 
    7170    308.00434    39.772873   -12340.243    1921.0965    1921.0965 
    7180     310.4014    40.082408   -12340.552    1949.0283    1949.0283 
    7190    305.52517    39.452735   -12339.922    1986.2211    1986.2211 
    7200    294.73148    38.058937   -12338.526    2042.5555    2042.5555 
    7210    299.21722    38.638185   -12339.105    2078.6048    2078.6048 
    7220    319.59475    41.269553   -12341.741    2043.1934    2043.1934 
    7230    310.17576    40.053271   -12340.524    1978.3057    1978.3057 
    7240    278.12516    35.914548    -12336.38    1903.1166    1903.1166 
    7250    278.51013     35.96426   -12336.432     1807.438     1807.438 
    7260    288.79146    37.291896   -12337.762    1817.6769    1817.6769 
    7270    285.90111    36.918664   -12337.385    1963.7941    1963.7941 
    7280    307.87802    39.756561   -12340.225    2081.0487    2081.0487 
    7290    336.32412    43.429831   -12343.902    2125.3317    2125.3317 
    7300    329.43491    42.540221    -12343.01    2147.0811    2147.0811 
    7310    312.27473    40.324313   -12340.792    2101.3656    2101.3656 
    7320     300.2386    38.770076    -12339.24    1986.3832    1986.3832 
    7330    279.37305    36.075689   -12336.543     1877.278     1877.278 
    7340    269.68826    34.825083   -12335.291    1825.5124    1825.5124 
    7350    284.94029    36.794592   -12337.264    1868.2017    1868.2017 
    7360    301.04211    38.873834   -12339.343    1977.6491    1977.6491 
    7370    315.78417    40.777489   -12341.247    2021.8973    2021.8973 
    7380     317.6309    41.015959   -12341.488    2002.5425    2002.5425 
    7390    289.64694    37.402365   -12337.869    2012.7962    2012.7962 
    7400    284.31608    36.713987   -12337.179    1984.6946    1984.6946 
    7410    313.61601    40.497513    -12340.97    1923.1675    1923.1675 
    7420    308.09882    39.785073   -12340.256    1953.8675    1953.8675 
    7430    283.02575    36.547365   -12337.012    1983.5646    1983.5646 
    7440    295.87316    38.206363   -12338.676    1911.3533    1911.3533 
    7450    301.21124    38.895674   -12339.367     1917.976     1917.976 
    7460    283.08836    36.555451   -12337.021    2009.2456    2009.2456 
    7470    296.57315    38.296753   -12338.765    1993.7742    1993.7742 
    7480    317.41332    40.987863    -12341.46    1960.0511    1960.0511 
    7490    304.69569    39.345624   -12339.813    2032.1092    2032.1092 
    7500    303.84969    39.236379   -12339.703    2058.3852    2058.3852 
    7510     317.0378    40.939372   -12341.412     2005.099     2005.099 
    7520    294.83681    38.072538   -12338.541    1989.0256    1989.0256 
    7530    274.74587    35.478177   -12335.943    1934.3935    1934.3935 
    7540    289.15413    37.338728   -12337.808    1856.7222    1856.7222 
    7550    302.45213    39.055912   -12339.526    1911.4299    1911.4299 
    7560    307.40487    39.695463   -12340.164    2025.3632    2025.3632 
    7570    313.13908    40.435926   -12340.906    2053.9771    2053.9771 
    7580    305.55027    39.455976   -12339.924    2063.4307    2063.4307 
    7590    304.29429    39.293791   -12339.761    2072.3181    2072.3181 
    7600    318.07149    41.072852   -12341.545    2019.5874    2019.5874 
    7610    301.03341    38.872711   -12339.343    1980.0303    1980.0303 
    7620    273.59661    35.329773   -12335.795    1937.9536    1937.9536 
    7630    284.07906     36.68338   -12337.152    1837.5814    1837.5814 
    7640    298.89798    38.596961   -12339.068    1812.2241    1812.2241 
    7650    290.04655    37.453968   -12337.921    1936.1121    1936.1121 
    7660    297.40383     38.40402   -12338.872    2021.9612    2021.9612 
    7670    313.00499    40.418611   -12340.891    2007.7635    2007.7635 
    7680    296.05757    38.230176   -12338.698    2053.2685    2053.2685 
    7690    293.31898    37.876539   -12338.341    2109.0365    2109.0365 
    7700    329.59513    42.560911   -12343.033    2047.4989    2047.4989 
    7710    334.53415    43.198691   -12343.672    1971.7334    1971.7334 
    7720    288.51381    37.256043   -12337.723    1977.2126    1977.2126 
    7730    263.53493    34.030498   -12334.494    1969.1949    1969.1949 
    7740    291.22175    37.605722   -12338.076    1894.8406    1894.8406 
    7750    307.09421    39.655347   -12340.128    1883.2674    1883.2674 
    7760    285.75016    36.899171   -12337.366    1947.0263    1947.0263 
    7770    283.27056    36.578978   -12337.045    1943.4425    1943.4425 
    7780    303.27932    39.162728   -12339.634    1908.4076    1908.4076 
    7790    303.49681    39.190812    -12339.66    1960.9295    1960.9295 
    7800    301.12888    38.885039   -12339.352    2026.1466    2026.1466 
    7810    316.72033    40.898377    -12341.37    2021.5972    2021.5972 
    7820    305.63817    39.467327   -12339.938    2053.1445    2053.1445 
    7830    284.19549    36.698416   -12337.162    2103.6551    2103.6551 
    7840    314.10901    40.561174   -12341.031    2047.8821    2047.8821 
    7850    336.19452    43.413096   -12343.888    2008.4784    2008.4784 
    7860    295.83492    38.201425   -12338.668    2057.2673    2057.2673 
    7870    278.98002    36.024937   -12336.489    1980.9608    1980.9608 
    7880    304.11321    39.270408   -12339.744    1823.9122    1823.9122 
    7890    287.69011    37.149679   -12337.619    1856.3215    1856.3215 
    7900    266.29616    34.387059    -12334.85    1970.5645    1970.5645 
    7910    304.21806    39.283947   -12339.755    1965.9476    1965.9476 
    7920    326.69698    42.186671    -12342.66    1998.1199    1998.1199 
    7930    306.38397    39.563633    -12340.03    2098.7307    2098.7307 
    7940    309.40275    39.953451   -12340.423    2063.1849    2063.1849 
    7950    310.11097    40.044903   -12340.517    1955.5036    1955.5036 
    7960    280.43596    36.212944   -12336.679    1898.9963    1898.9963 
    7970    273.15203    35.272364   -12335.739    1845.1151    1845.1151 
    7980    286.67038       37.018   -12337.488    1849.1986    1849.1986 
    7990    296.10017    38.235677   -12338.702    1963.1413    1963.1413 
    8000    323.34172    41.753403   -12342.224    2045.8015    2045.8015 
    8010    331.34173    42.786451    -12343.26     2075.439     2075.439 
    8020    291.04938    37.583463   -12338.049    2100.4796    2100.4796 
    8030    280.58545    36.232247   -12336.697     2005.649     2005.649 
    8040    307.30013    39.681938   -12340.156    1843.0658    1843.0658 
    8050    290.00277    37.448315   -12337.918    1834.5066    1834.5066 
    8060    268.64217    34.690001   -12335.153    1908.4551    1908.4551 
    8070    301.66634    38.954442   -12339.425    1926.9112    1926.9112 
    8080    321.49691    41.515181   -12341.988    1999.8969    1999.8969 
    8090    305.33144    39.427719   -12339.894    2127.9526    2127.9526 
    8100    307.17403    39.665655   -12340.134     2142.551     2142.551 
    8110    314.71653    40.639623    -12341.11    2052.1394    2052.1394 
    8120    306.16491    39.535345   -12340.004    1962.5776    1962.5776 
    8130    299.13455     38.62751   -12339.097    1919.2341    1919.2341 
    8140    289.28269     37.35533   -12337.823    1927.7764    1927.7764 
    8150     288.1792    37.212836    -12337.68    1911.6867    1911.6867 
    8160    303.83385    39.234334   -12339.706    1882.7033    1882.7033 
    8170    295.61477    38.172997   -12338.642    1971.3266    1971.3266 
    8180    285.64894    36.886101    -12337.35     2066.322     2066.322 
    8190    315.42229     40.73076   -12341.202    2010.9337    2010.9337 
    8200    316.97376    40.931103   -12341.404    1978.5404    1978.5404 
    8210    281.85875     36.39667    -12336.86    2009.1191    2009.1191 
    8220      297.392    38.402492   -12338.871    1911.3782    1911.3782 
    8230    316.81023    40.909986   -12341.386    1821.2855    1821.2855 
    8240    273.11233    35.267237   -12335.733    1913.2143    1913.2143 
    8250    262.56738    33.905558   -12334.368    1975.8011    1975.8011 
    8260     310.5525    40.101919   -12340.575     1966.953     1966.953 
    8270    321.28823    41.488233   -12341.958     2064.118     2064.118 
    8280    315.31084    40.716367   -12341.182    2127.2827    2127.2827 
    8290    330.45474    42.671913   -12343.145    2051.7791    2051.7791 
    8300    307.35001    39.688379   -12340.158    2025.8102    2025.8102 
    8310    277.96564    35.893949   -12336.357    2004.2591    2004.2591 
    8320    298.51772    38.547858   -12339.019    1881.4753    1881.4753 
    8330    295.50779    38.159182   -12338.631    1861.6704    1861.6704 
    8340    266.03449    34.353269   -12334.816    1939.1337    1939.1337 
    8350    287.60473    37.138653   -12337.608     1895.457     1895.457 
    8360    309.07862    39.911596   -12340.384     1879.318     1879.318 
    8370    297.15475    38.371856   -12338.838    1989.3776    1989.3776 
    8380    310.51901    40.097595   -12340.566     2024.348     2024.348 
    8390    322.47314    41.641241   -12342.115     2007.729     2007.729 
    8400    293.32096    37.876795   -12338.342      2073.69      2073.69 
    8410    292.45316    37.764735   -12338.231    2069.8866    2069.8866 
    8420    317.03115    40.938513   -12341.412    1985.2099    1985.2099 
    8430    297.92221    38.470959   -12338.939    2004.4681    2004.4681 
    8440    286.95724    37.055043    -12337.52    2004.2184    2004.2184 
    8450    312.56674    40.362019   -12340.835    1892.9126    1892.9126 
    8460    302.75836    39.095455   -12339.566    1889.3548    1889.3548 
    8470    277.05988    35.776987   -12336.241    1991.4611    1991.4611 
    8480    295.90425    38.210378   -12338.679    1999.9042    1999.9042 
    8490    315.30724    40.715903   -12341.188    1983.6522    1983.6522 
    8500     301.4036    38.920513   -12339.388    2046.3922    2046.3922 
    8510     300.5564    38.811114   -12339.278    2042.1439    2042.1439 
    8520    312.04459    40.294593   -12340.766     1937.543     1937.543 
    8530    295.73053    38.187945   -12338.657    1901.4656    1901.4656 
    8540    277.31168    35.809503   -12336.276     1928.024     1928.024 
    8550    285.71221    36.894271   -12337.362    1922.1078    1922.1078 
    8560    304.89954    39.371948   -12339.842     1925.613     1925.613 
    8570    309.53925    39.971077   -12340.441    2004.3349    2004.3349 
    8580    305.84545    39.494093   -12339.962    2070.2131    2070.2131 
    8590    311.42613    40.214731   -12340.684    2039.0404    2039.0404 
    8600    308.35889    39.818656    -12340.29    1994.8506    1994.8506 
    8610    285.50143    36.867052   -12337.334    1989.2045    1989.2045 
    8620    280.27282    36.191877   -12336.658    1940.9075    1940.9075 
    8630    297.71189    38.443799   -12338.914     1891.971     1891.971 
    8640      304.347    39.300598    -12339.77    1931.1497    1931.1497 
    8650    304.74171    39.351566   -12339.821    1969.5563    1969.5563 
    8660    301.48844    38.931469   -12339.401     1970.733     1970.733 
    8670    288.58439    37.265157   -12337.732    1997.2021    1997.2021 
    8680    296.17946    38.245915   -12338.713    2004.2896    2004.2896 
    8690    320.37263    41.370001   -12341.843    1981.0222    1981.0222 
    8700    309.15952    39.922043   -12340.392    2023.1841    2023.1841 
    8710    290.72893    37.542084   -12338.007    2042.2901    2042.2901 
    8720    308.58595    39.847977   -12340.319    1957.8321    1957.8321 
    8730    310.45035    40.088728    -12340.56    1939.4927    1939.4927 
    8740    285.57969    36.877158   -12337.343    1991.7388    1991.7388 
    8750    289.33617    37.362236   -12337.831    1934.8913    1934.8913 
    8760    295.96442    38.218147    -12338.69    1876.9532    1876.9532 
    8770    280.79909    36.259835   -12336.726    1957.0146    1957.0146 
    8780    294.97622     38.09054   -12338.557    2018.7302    2018.7302 
    8790    326.64463     42.17991   -12342.653     1998.241     1998.241 
    8800    319.83603     41.30071   -12341.771    2004.2803    2004.2803 
    8810    298.98806    38.608593   -12339.076    2002.0369    2002.0369 
    8820    289.08755    37.330131     -12337.8    1975.8908    1975.8908 
    8830     278.3051    35.937784   -12336.404    2006.5605    2006.5605 
    8840    292.88835    37.820932   -12338.288    2012.3628    2012.3628 
    8850     318.8849    41.177889   -12341.651    1950.3318    1950.3318 
    8860     302.3982    39.048947   -12339.517    1960.6812    1960.6812 
    8870    290.15625    37.468133   -12337.933    2009.6695    2009.6695 
    8880    318.03666    41.068355    -12341.54       1993.5       1993.5 
    8890    317.08094    40.944942   -12341.417    1994.4255    1994.4255 
    8900    283.43993    36.600849   -12337.066    2023.2956    2023.2956 
    8910    285.59204    36.878752   -12337.346    1962.7175    1962.7175 
    8920     301.2221    38.897076   -12339.369     1892.732     1892.732 
    8930    292.68686    37.794913   -12338.262    1923.6398    1923.6398 
    8940    300.85166    38.849241   -12339.318    1931.7966    1931.7966 
    8950    307.44606    39.700782   -12340.173    1921.7625    1921.7625 
    8960    281.82463    36.392263   -12336.858    1993.3874    1993.3874 
    8970    283.88809    36.658721   -12337.124    2037.3582    2037.3582 
    8980     319.7854    41.294172   -12341.767    1996.1957    1996.1957 
    8990    314.02342    40.550122   -12341.021    1998.4281    1998.4281 
    9000    289.23313     37.34893   -12337.814    2012.0799    2012.0799 
    9010    301.04464    38.874161   -12339.344    1951.2386    1951.2386 
    9020    307.79033    39.745238   -12340.216    1931.2044    1931.2044 
    9030    292.27122    37.741242   -12338.208    1990.7367    1990.7367 
    9040     294.4896    38.027702   -12338.495    2022.1456    2022.1456 
    9050     310.1619     40.05148   -12340.522    2013.0027    2013.0027 
    9060    309.12792    39.917962   -12340.387    2031.0323    2031.0323 
    9070    304.21094    39.283028   -12339.751    2051.5552    2051.5552 
    9080    305.94308    39.506701   -12339.976    2042.9862    2042.9862 
    9090    305.19045    39.409512   -12339.879    2006.1305    2006.1305 
    9100    296.49504    38.286666   -12338.756    1940.8335    1940.8335 
    9110    284.92956    36.793206   -12337.261    1870.6491    1870.6491 
    9120      281.858    36.396573   -12336.864    1850.4896    1850.4896 
    9130    290.42794    37.503216   -12337.972    1900.1595    1900.1595 
    9140     299.1159      38.6251   -12339.094    1988.9751    1988.9751 
    9150    305.46603    39.445099   -12339.913    2062.8124    2062.8124 
    9160    320.18614     41.34592   -12341.816    2063.0804    2063.0804 
    9170    321.87268    41.563704   -12342.036    2015.5764    2015.5764 
    9180    292.81839    37.811897    -12338.28    1966.2951    1966.2951 
    9190    269.37133    34.784159    -12335.25    1892.3788    1892.3788 
    9200    275.96424    35.635507   -12336.104    1822.4091    1822.4091 
    9210    290.38584    37.497781   -12337.967     1859.394     1859.394 
    9220    306.33868    39.557785   -12340.026    1983.8733    1983.8733 
    9230    327.42521    42.280707   -12342.752    2082.8178    2082.8178 
    9240    327.32176    42.267349   -12342.738    2133.1037    2133.1037 
    9250    307.51492    39.709674   -12340.177    2118.6815    2118.6815 
    9260    299.77762    38.710549    -12339.18    1996.1524    1996.1524 
    9270    290.25048    37.480301    -12337.95    1865.9246    1865.9246 
    9280    270.58242    34.940547   -12335.407    1824.8806    1824.8806 
    9290    273.77699    35.353064    -12335.82    1828.5848    1828.5848 
    9300    297.29722    38.390253   -12338.861    1870.6956    1870.6956 
    9310    304.25011    39.288086   -12339.757    2003.1947    2003.1947 
    9320    311.78282    40.260791   -12340.728    2122.7718    2122.7718 
    9330    329.40926     42.53691   -12343.008    2153.4974    2153.4974 
    9340    320.50608    41.387234   -12341.857    2168.0535    2168.0535 
    9350    301.10201    38.881569   -12339.347      2126.33      2126.33 
    9360    309.32423    39.943311   -12340.413    1954.7541    1954.7541 
    9370    304.52733    39.323884   -12339.796    1815.4986    1815.4986 
    9380    267.67131    34.564633    -12335.03     1822.534     1822.534 
    9390    263.69405    34.051046   -12334.517    1836.9535    1836.9535 
    9400    292.23011    37.735933   -12338.208    1848.8007    1848.8007 
    9410    295.97946    38.220089   -12338.689    1979.6659    1979.6659 
    9420    302.44176    39.054572   -12339.521    2090.0814    2090.0814 
    9430    331.86995     42.85466   -12343.328    2049.6485    2049.6485 
    9440    318.61867    41.143511   -12341.615    2028.6571    2028.6571 
    9450    279.13836    36.045384   -12336.509    2050.9429    2050.9429 
    9460    293.71248    37.927353   -12338.395    1961.1219    1961.1219 
    9470    319.42189    41.247231   -12341.722    1895.4299    1895.4299 
    9480    291.63336    37.658874   -12338.126    2018.1834    2018.1834 
    9490    280.36202    36.203396   -12336.667    2090.8366    2090.8366 
    9500    317.16426    40.955701   -12341.428    1975.0266    1975.0266 
    9510    316.88175     40.91922   -12341.392    1902.3228    1902.3228 
    9520    280.78098    36.257497   -12336.722    1916.1848    1916.1848 
    9530    281.66941     36.37222    -12336.84    1871.5738    1871.5738 
    9540     296.9844    38.349858   -12338.822     1859.412     1859.412 
    9550       286.02    36.934016   -12337.401     1977.974     1977.974 
    9560    292.20158    37.732249   -12338.198    2069.2398    2069.2398 
    9570    322.04453    41.585895   -12342.057    2073.7392    2073.7392 
    9580    324.14749    41.857453   -12342.328    2076.5394    2076.5394 
    9590    302.96324    39.121912   -12339.589    2037.6001    2037.6001 
    9600    294.86417    38.076072   -12338.544    1937.6666    1937.6666 
    9610    299.35924    38.656524   -12339.126    1887.1406    1887.1406 
    9620    300.83201    38.846704   -12339.316     1915.001     1915.001 
    9630    296.03655    38.227462   -12338.696    1963.3675    1963.3675 
    9640    291.00563    37.577815   -12338.045    2023.9529    2023.9529 
    9650    298.45927     38.54031   -12339.008    2066.3098    2066.3098 
    9660    314.61075    40.625964   -12341.096    2043.8547    2043.8547 
    9670    316.20833    40.832261   -12341.302     2013.684     2013.684 
    9680     304.7668    39.354807   -12339.823    2001.9844    2001.9844 
    9690    294.89405    38.079929   -12338.549    1948.5598    1948.5598 
    9700    285.36176    36.849017   -12337.318    1876.4221    1876.4221 
    9710    278.65138    35.982499    -12336.45    1864.6158    1864.6158 
    9720    283.42511    36.598935   -12337.066    1890.5369    1890.5369 
    9730    299.79004    38.712153   -12339.182    1887.4137    1887.4137 
    9740    304.59934    39.333183   -12339.804    1925.3976    1925.3976 
    9750    292.43521    37.762417   -12338.229    2037.4397    2037.4397 
    9760    298.32221     38.52261   -12338.989    2085.5138    2085.5138 
    9770    325.72529    42.061194   -12342.533    2038.5877    2038.5877 
    9780    321.04634    41.456998   -12341.928    2042.5221    2042.5221 
    9790    292.46189    37.765862   -12338.231    2042.2606    2042.2606 
    9800    295.10108    38.106663   -12338.575    1919.8132    1919.8132 
    9810    302.33838    39.041222   -12339.514     1845.121     1845.121 
    9820    278.22594    35.927562   -12336.394    1931.4328    1931.4328 
    9830    280.07626    36.166496   -12336.632    1980.4404    1980.4404 
    9840    313.39346    40.468775   -12340.942    1957.0068    1957.0068 
    9850    308.82815    39.879252   -12340.349      2017.18      2017.18 
    9860    296.46437    38.282707   -12338.748    2055.5324    2055.5324 
    9870    315.72282    40.769567    -12341.24    1999.2363    1999.2363 
    9880    313.49196    40.481494   -12340.953    2001.9617    2001.9617 
    9890    286.61871    37.011327   -12337.476    2039.0497    2039.0497 
    9900    300.84805    38.848775   -12339.317    1950.7765    1950.7765 
    9910    316.50345    40.870371   -12341.344    1899.5475    1899.5475 
    9920    286.14179    36.949742   -12337.416     1997.504     1997.504 
    9930    281.26265    36.319695   -12336.785     1995.547     1995.547 
    9940    306.85787    39.624828   -12340.098     1886.739     1886.739 
    9950     296.2819    38.259144   -12338.728    1910.0598    1910.0598 
    9960    286.63746    37.013749   -12337.479    1994.0553    1994.0553 
    9970    312.59758    40.366002   -12340.838    2016.5309    2016.5309 
    9980    312.38852    40.339006    -12340.81    2081.5869    2081.5869 
    9990    294.79843    38.067582   -12338.532    2099.1609    2099.1609 
   10000    312.07947    40.299098    -12340.77    1931.6085    1931.6085 
Loop time of 11.2077 on 1 procs for 10000 steps with 1000 atoms

Performance: 38.545 ns/day, 0.623 hours/ns, 892.246 timesteps/s
99.8% CPU use with 1 MPI tasks x no OpenMP threads

MPI task timing breakdown:
Section |  min time  |  avg time  |  max time  |%varavg| %total
---------------------------------------------------------------
Pair    | 9.1341     | 9.1341     | 9.1341     |   0.0 | 81.50
Neigh   | 1.3298     | 1.3298     | 1.3298     |   0.0 | 11.87
Comm    | 0.085317   | 0.085317   | 0.085317   |   0.0 |  0.76
Output  | 0.57905    | 0.57905    | 0.57905    |   0.0 |  5.17
Modify  | 0.059141   | 0.059141   | 0.059141   |   0.0 |  0.53
Other   |            | 0.02028    |            |       |  0.18

Nlocal:    1000 ave 1000 max 1000 min
Histogram: 1 0 0 0 0 0 0 0 0 0
Nghost:    2055 ave 2055 max 2055 min
Histogram: 1 0 0 0 0 0 0 0 0 0
Neighs:    0 ave 0 max 0 min
Histogram: 1 0 0 0 0 0 0 0 0 0
FullNghs:  33732 ave 33732 max 33732 min
Histogram: 1 0 0 0 0 0 0 0 0 0

Total # of neighbors = 33732
Ave neighs/atom = 33.732
Neighbor list builds = 1000
Dangerous builds not checked

Total wall time: 0:00:11
