
# Define the lattice
variable	lattice_constant equal 6.21
lattice		diamond ${lattice_constant}
lattice		diamond 6.21
Lattice spacing in x,y,z = 6.21 6.21 6.21

# Define region
# multiples of lattice spacing
region 		simbox block 0 5 0 5 0 5

# Create Atoms
create_box 	1 simbox
Created orthogonal box = (0 0 0) to (31.05 31.05 31.05)
  1 by 1 by 1 MPI processor grid
create_atoms 	1 box
Created 1000 atoms
  Time spent = 0.000222921 secs
mass		1 18.015

velocity	all create 600.0 97287

# Define Interatomic Potential
pair_style	sw
pair_coeff	* * mW.sw mW
Reading potential file mW.sw with DATE: 2019-02-27

neighbor 	2.0 bin
neigh_modify	delay 10 check no

# Pressure computations
compute		total_press all pressure thermo_temp
compute		peratom all stress/atom NULL
compute		p all reduce sum c_peratom[1] c_peratom[2] c_peratom[3]
variable	press equal -(c_p[1]+c_p[2]+c_p[3])/(3*vol)

# Density computations
variable	total_mass equal mass(all)
variable	v equal vol
print 		${total_mass}
print 		18014.9999999997
18014.9999999997
print		$v
print		29935.382625
29935.382625

variable 	density equal v_total_mass/(v_v*18.015)
print 		${density}
print 		0.0334052853951114
0.0334052853951114


# Run equilibration
thermo_style	custom step temp ke pe c_total_press v_press
thermo		10
dump		1 all atom 10 ${simname}.dump
dump		1 all atom 10 mW_liquid_6.21.dump

fix 		1 all nve
#temp 300.0 300.0 100.0 iso 0.0 0.0 1000.0
timestep	0.0005
run		10000
Neighbor list info ...
  update every 1 steps, delay 10 steps, check no
  max neighbors/atom: 2000, page size: 100000
  master list distance cutoff = 6.3065
  ghost atom cutoff = 6.3065
  binsize = 3.15325, bins = 10 10 10
  1 neighbor lists, perpetual/occasional/extra = 1 0 0
  (1) pair sw, perpetual
      attributes: full, newton on
      pair build: full/bin/atomonly
      stencil: full/bin/3d
      bin: standard
Per MPI rank memory allocation (min/avg/max) = 4.438 | 4.438 | 4.438 Mbytes
Step Temp KinEng PotEng c_total_press v_press 
       0          600    77.478531   -12377.721   -4827.6083   -4827.6083 
      10    358.01123    46.230306   -12346.414   -4454.3113   -4454.3113 
      20    172.91118    22.328173   -12322.484    -4554.709    -4554.709 
      30     323.4435    41.766545   -12341.982   -5484.6647   -5484.6647 
      40    272.80275    35.227261   -12335.428   -5595.9262   -5595.9262 
      50    140.03197    18.082452   -12318.242    -5206.395    -5206.395 
      60     295.7245    38.187166   -12338.389    -5412.574    -5412.574 
      70    364.42751    47.058847   -12347.271     -5298.38     -5298.38 
      80    249.91797    32.272128   -12332.441   -4680.6942   -4680.6942 
      90    336.54801    43.458742   -12343.652   -4748.3152   -4748.3152 
     100    410.44723    53.001414   -12353.218   -5036.8034   -5036.8034 
     110    256.88444    33.171715   -12333.348   -4846.4314   -4846.4314 
     120    242.75073    31.346617   -12331.526    -4982.325    -4982.325 
     130    350.00594    45.196577   -12345.408   -5338.9516   -5338.9516 
     140    280.63193     36.23825   -12336.426   -5102.9164   -5102.9164 
     150    245.48549    31.699758   -12331.877   -4926.3176   -4926.3176 
     160    344.62154    44.501285   -12344.708   -5204.6935   -5204.6935 
     170    309.40109    39.953236   -12340.149   -5122.4335   -5122.4335 
     180    239.54119    30.932166   -12331.107   -4833.3745   -4833.3745 
     190    329.13348    42.501297     -12342.7    -5008.385    -5008.385 
     200    358.74696    46.325312    -12346.53    -5139.963    -5139.963 
     210    265.74809    34.316287   -12334.497   -4929.0389   -4929.0389 
     220     273.7068    35.344001   -12335.531   -4966.7546   -4966.7546 
     230    329.50211    42.548899   -12342.751    -5164.639    -5164.639 
     240    291.77499    37.677163   -12337.866   -5065.2017   -5065.2017 
     250    275.48773    35.573974    -12335.76   -4987.5732   -4987.5732 
     260    315.67047    40.762808   -12340.961   -5112.2996   -5112.2996 
     270    299.90903    38.727518    -12338.92   -5052.4439   -5052.4439 
     280    281.90702    36.402903   -12336.588   -4907.8836   -4907.8836 
     290    329.70332    42.574881   -12342.771   -5001.0544   -5001.0544 
     300    337.05824    43.524629   -12343.723   -5064.9694   -5064.9694 
     310    281.46062    36.345259   -12336.532   -4935.3907   -4935.3907 
     320    277.53778    35.838699   -12336.026   -4931.3398   -4931.3398 
     330    315.88058    40.789939   -12340.987   -5078.2791   -5078.2791 
     340    301.89787    38.984339   -12339.178   -5107.1257   -5107.1257 
     350    270.49159    34.928818   -12335.116   -5107.2483   -5107.2483 
     360    285.00253    36.802629   -12336.995   -5219.8279   -5219.8279 
     370    299.42658    38.665219    -12338.86   -5228.5488   -5228.5488 
     380    288.32085    37.231126   -12337.421   -5071.6848   -5071.6848 
     390    296.60054    38.300291    -12338.49   -4974.0226   -4974.0226 
     400    322.25029    41.612465   -12341.807   -4934.5376   -4934.5376 
     410     327.5174    42.292611   -12342.485   -4830.8444   -4830.8444 
     420    324.23778    41.869112   -12342.061   -4805.2316   -4805.2316 
     430    316.41418    40.858843   -12341.052   -4936.3243   -4936.3243 
     440    291.98842    37.704722   -12337.896   -5076.3132   -5076.3132 
     450    272.34191    35.167751   -12335.358   -5169.0953   -5169.0953 
     460    268.40126    34.658892   -12334.851   -5228.0332   -5228.0332 
     470    271.47243    35.055475   -12335.246   -5201.8247   -5201.8247 
     480    293.81969    37.941197   -12338.133   -5131.1922   -5131.1922 
     490    316.11178    40.819794   -12341.015   -5064.3762   -5064.3762 
     500    304.73298    39.350439   -12339.541   -4946.0045   -4946.0045 
     510    304.23336    39.285923   -12339.475   -4852.1724   -4852.1724 
     520    329.36024    42.530579   -12342.726   -4890.3457   -4890.3457 
     530    318.31914    41.104832   -12341.299   -4976.0745   -4976.0745 
     540    280.60781    36.235135   -12336.423    -5027.076    -5027.076 
     550     277.8816    35.883098   -12336.073   -5077.0665   -5077.0665 
     560    298.30016    38.519764   -12338.713   -5114.0867   -5114.0867 
     570    306.18875    39.538424   -12339.731   -5099.8209   -5099.8209 
     580    305.09694    39.397438    -12339.59   -5065.2313   -5065.2313 
     590    300.12071    38.754853   -12338.947   -5044.7437   -5044.7437 
     600    294.85406    38.074765   -12338.265   -5020.8293   -5020.8293 
     610    300.97447      38.8651   -12339.057    -4972.626    -4972.626 
     620    308.98619     39.89966   -12340.092   -4930.5151   -4930.5151 
     630    310.17718    40.053454   -12340.245   -4957.9812   -4957.9812 
     640    311.03579    40.164326   -12340.358   -5034.3787   -5034.3787 
     650    297.73397    38.446651   -12338.639   -5056.7506   -5056.7506 
     660    279.32973    36.070096   -12336.258    -5050.703    -5050.703 
     670    294.58692     38.04027   -12338.232   -5118.7779   -5118.7779 
     680     308.3758    39.820839   -12340.017   -5151.1553   -5151.1553 
     690    285.83966    36.910728   -12337.101   -5071.2277   -5071.2277 
     700     280.0399      36.1618    -12336.35   -5018.0408   -5018.0408 
     710     306.7329    39.608691   -12339.803   -5024.4601   -5024.4601 
     720    308.17634    39.795084   -12339.989   -4994.4981   -4994.4981 
     730    294.87616     38.07762   -12338.267   -4993.2061   -4993.2061 
     740    306.97328    39.639732   -12339.833   -5064.6552   -5064.6552 
     750    307.76911    39.742498   -12339.937   -5066.7436   -5066.7436 
     760    288.70943    37.281304    -12337.47   -5006.2584   -5006.2584 
     770    295.50385    38.158673    -12338.35    -5022.476    -5022.476 
     780    309.15214    39.921089   -12340.116    -5054.877    -5054.877 
     790    298.84216    38.589752    -12338.78   -5029.0495   -5029.0495 
     800    301.42373    38.923113   -12339.114   -5038.6349   -5038.6349 
     810    308.97855    39.898673   -12340.094   -5029.0124   -5029.0124 
     820    288.43132    37.245392   -12337.435   -4918.6884   -4918.6884 
     830    294.58959    38.040615   -12338.229   -4893.2679   -4893.2679 
     840    334.15959    43.150324   -12343.348   -5004.3454   -5004.3454 
     850    315.85791    40.787012   -12340.982   -5041.8689   -5041.8689 
     860    270.68353    34.953603   -12335.139   -5061.7093   -5061.7093 
     870    282.67133    36.501599   -12336.693   -5184.6579   -5184.6579 
     880    298.73703    38.576176   -12338.772   -5221.2722   -5221.2722 
     890    283.17422    36.566538   -12336.755   -5119.7385   -5119.7385 
     900    293.08587    37.846437   -12338.038   -5062.2122   -5062.2122 
     910    307.13304    39.660361   -12339.856   -4995.1526   -4995.1526 
     920    292.20739    37.732999   -12337.921   -4868.1519   -4868.1519 
     930    316.14334    40.823869   -12341.015   -4906.8971   -4906.8971 
     940    346.01739    44.681531   -12344.882   -5025.7669   -5025.7669 
     950    298.77307     38.58083   -12338.771    -4983.268    -4983.268 
     960    267.41515    34.531555   -12334.716   -4975.9767   -4975.9767 
     970    307.49137    39.706632   -12339.903    -5107.996    -5107.996 
     980    309.51902    39.968464   -12340.164   -5110.5428   -5110.5428 
     990     278.2139    35.926008   -12336.113    -5046.594    -5046.594 
    1000    290.97318    37.573624   -12337.767   -5120.8932   -5120.8932 
    1010    295.96995    38.218862   -12338.413   -5141.8209   -5141.8209 
    1020    279.73187    36.122023   -12336.309   -5032.2139   -5032.2139 
    1030    308.94092    39.893815   -12340.086   -4993.5029   -4993.5029 
    1040    332.11745     42.88662   -12343.084   -4967.9719   -4967.9719 
    1050    306.98836    39.641679   -12339.831   -4883.4555   -4883.4555 
    1060    304.44282    39.312971   -12339.504   -4920.4237   -4920.4237 
    1070    306.81728    39.619587   -12339.815   -5015.9233   -5015.9233 
    1080    283.81045    36.648694   -12336.837   -5049.3978   -5049.3978 
    1090    296.10273    38.236008   -12338.427   -5150.5487   -5150.5487 
    1100    313.61425    40.497286   -12340.696   -5265.6835   -5265.6835 
    1110    264.68503    34.179012   -12334.368   -5175.7462   -5175.7462 
    1120    245.53127    31.705671   -12331.888   -5029.9005   -5029.9005 
    1130    317.53719    41.003859     -12341.2   -5016.4299   -5016.4299 
    1140    347.78431    44.909695   -12345.108   -4953.1824   -4953.1824 
    1150    311.67812    40.247271   -12340.436   -4866.1098   -4866.1098 
    1160    302.95982    39.121469   -12339.313   -4948.0462   -4948.0462 
    1170    303.18258    39.150234   -12339.345   -5066.7008   -5066.7008 
    1180    283.11082     36.55835   -12336.748    -5079.309    -5079.309 
    1190    285.16536    36.823656   -12337.015   -5090.3807   -5090.3807 
    1200    296.55658    38.294613   -12338.489   -5103.6931   -5103.6931 
    1210    289.93925    37.440112    -12337.63   -5031.9874   -5031.9874 
    1220    303.88798    39.241324   -12339.431   -4939.1665   -4939.1665 
    1230    338.91807     43.76479    -12343.96   -4902.7378   -4902.7378 
    1240    337.15189    43.536722   -12343.732   -4905.7093   -4905.7093 
    1250    296.54705    38.293382   -12338.484    -4950.314    -4950.314 
    1260    272.58881    35.199634   -12335.388   -5065.2367   -5065.2367 
    1270    282.45986    36.474292   -12336.666   -5188.9197   -5188.9197 
    1280    295.54284    38.163708   -12338.358   -5227.2811   -5227.2811 
    1290    285.03465    36.806777   -12336.999   -5168.3798   -5168.3798 
    1300    273.91213    35.370516   -12335.559   -5100.9766   -5100.9766 
    1310    295.52774    38.161759   -12338.353   -5069.9701   -5069.9701 
    1320    322.47153    41.641034   -12341.836   -5004.0284   -5004.0284 
    1330    316.13472    40.822757   -12341.016   -4899.7065   -4899.7065 
    1340    299.70228     38.70082    -12338.89   -4886.9641   -4886.9641 
    1350    305.48193    39.447151    -12339.64   -5009.6448   -5009.6448 
    1360    300.30744    38.778965   -12338.973   -5088.5537   -5088.5537 
    1370     281.0838      36.2966   -12336.485   -5055.7465   -5055.7465 
    1380    293.82995    37.942522   -12338.133   -5028.7646   -5028.7646 
    1390    325.29469    42.005591   -12342.201   -5029.7522   -5029.7522 
    1400     322.8484      41.6897   -12341.884   -4993.9934   -4993.9934 
    1410    294.24909    37.996645   -12338.186   -4948.7707   -4948.7707 
    1420    290.52466    37.515706   -12337.707   -5000.9026   -5000.9026 
    1430    297.11845    38.367168   -12338.562   -5119.5349   -5119.5349 
    1440    275.75071    35.607934     -12335.8   -5177.6287   -5177.6287 
    1450    257.66084    33.271973   -12333.459   -5144.1411   -5144.1411 
    1460    288.73271     37.28431   -12337.474   -5080.1271   -5080.1271 
    1470    340.01777    43.906795   -12344.103   -5011.7839   -5011.7839 
    1480    346.64863    44.763044   -12344.959    -4910.544    -4910.544 
    1490     309.8718     40.01402   -12340.204   -4835.6689   -4835.6689 
    1500    291.77719    37.677447   -12337.867   -4923.6201   -4923.6201 
    1510    299.44084    38.667061   -12338.861   -5113.1435   -5113.1435 
    1520    290.05129     37.45458   -12337.648   -5202.2841   -5202.2841 
    1530    268.11772    34.622279   -12334.811   -5146.2256   -5146.2256 
    1540    280.50655    36.222058   -12336.412   -5065.4008   -5065.4008 
    1550     313.1387    40.435878    -12340.63   -4989.2933   -4989.2933 
    1560    323.33753    41.752862   -12341.945   -4908.5732   -4908.5732 
    1570    324.20984    41.865503   -12342.058   -4919.0733   -4919.0733 
    1580    315.72519    40.769873   -12340.964    -5016.394    -5016.394 
    1590    282.47307    36.475997   -12336.667   -5103.7057   -5103.7057 
    1600    255.98058    33.054998   -12333.242   -5152.6761   -5152.6761 
    1610    275.24913    35.543164   -12335.734   -5180.1751   -5180.1751 
    1620     307.0319    39.647301   -12339.842   -5139.1029   -5139.1029 
    1630     315.3777    40.725002   -12340.918   -5032.9516   -5032.9516 
    1640    311.45131    40.217983    -12340.41   -4923.5918   -4923.5918 
    1650    309.28104    39.937735   -12340.128   -4852.2703   -4852.2703 
    1660    319.11158    41.207161   -12341.399   -4877.5188   -4877.5188 
    1670    323.25134    41.741732   -12341.937   -4974.3779   -4974.3779 
    1680    298.57007    38.554617   -12338.747   -5066.1657   -5066.1657 
    1690    272.69347     35.21315   -12335.403   -5162.5376   -5162.5376 
    1700    268.86509    34.718787   -12334.911   -5244.8219   -5244.8219 
    1710    268.38912    34.657325   -12334.848   -5233.7143   -5233.7143 
    1720    277.75271    35.866453   -12336.056   -5161.5417   -5161.5417 
    1730    307.40275     39.69519   -12339.889   -5085.6783   -5085.6783 
    1740    314.65947    40.632255   -12340.826   -4945.1396   -4945.1396 
    1750      302.994    39.125883   -12339.313   -4791.2356   -4791.2356 
    1760    336.09972    43.400854   -12343.593   -4814.7174   -4814.7174 
    1770    363.08508    46.885498   -12347.086   -4924.3616   -4924.3616 
    1780    309.77769    40.001867   -12340.193   -4933.6572   -4933.6572 
    1790    259.88849    33.559631   -12333.744   -4970.4643   -4970.4643 
    1800     281.7949    36.388425   -12336.581   -5119.5495   -5119.5495 
    1810    305.94459    39.506896   -12339.702   -5207.8573   -5207.8573 
    1820    293.48254     37.89766   -12338.089   -5189.0992   -5189.0992 
    1830    281.80196    36.389336    -12336.58   -5158.6908   -5158.6908 
    1840    282.99903    36.543916   -12336.735   -5102.6403   -5102.6403 
    1850    295.88991    38.208526     -12338.4   -5018.6402   -5018.6402 
    1860    313.76001    40.516108    -12340.71   -4954.8691   -4954.8691 
    1870    315.61407    40.755524   -12340.948   -4926.3331   -4926.3331 
    1880    311.12683    40.176083   -12340.367   -4965.6973   -4965.6973 
    1890    309.26024    39.935049   -12340.129   -5055.0958   -5055.0958 
    1900    288.82063    37.295663   -12337.487   -5091.5918   -5091.5918 
    1910    276.99211    35.768236   -12335.957    -5120.706    -5120.706 
    1920    293.77222    37.935067   -12338.129   -5180.9212   -5180.9212 
    1930    291.04918    37.583438   -12337.777   -5134.9256   -5134.9256 
    1940     273.4718    35.313656   -12335.501   -5001.2576   -5001.2576 
    1950    300.01134     38.74073   -12338.932   -4970.4086   -4970.4086 
    1960    331.64284    42.825334   -12343.022   -4977.4661   -4977.4661 
    1970    316.67162    40.892087   -12341.083   -4897.9615   -4897.9615 
    1980    310.34252    40.074804   -12340.264   -4895.6527   -4895.6527 
    1990    322.96635     41.70493   -12341.901   -5016.7304   -5016.7304 
    2000    296.27301    38.257997   -12338.451    -5068.422    -5068.422 
    2010    264.03767    34.095418   -12334.282   -5065.3025   -5065.3025 
    2020    285.68414    36.890646   -12337.083   -5142.4976   -5142.4976 
    2030    306.65674    39.598856   -12339.794   -5170.6017   -5170.6017 
    2040     294.7857    38.065938   -12338.256    -5064.757    -5064.757 
    2050     296.3853    38.272496   -12338.462   -4957.4397   -4957.4397 
    2060    322.34253    41.624376   -12341.818   -4934.4444   -4934.4444 
    2070     327.3352    42.269084   -12342.464   -4942.3866   -4942.3866 
    2080    305.14236    39.403303   -12339.594    -4980.904    -4980.904 
    2090    290.34107    37.491999   -12337.683   -5079.4346   -5079.4346 
    2100    281.87112    36.398267    -12336.59   -5153.7504   -5153.7504 
    2110    277.56762    35.842553   -12336.033   -5173.2093   -5173.2093 
    2120    286.13725    36.949156   -12337.141   -5163.9905   -5163.9905 
    2130    297.00571     38.35261   -12338.545   -5109.1181   -5109.1181 
    2140    298.85178    38.590995   -12338.782   -5018.6516   -5018.6516 
    2150    307.73933    39.738652   -12339.929    -4973.348    -4973.348 
    2160     324.0847    41.849344   -12342.044   -4971.5835   -4971.5835 
    2170    313.12344    40.433907   -12340.627   -4929.8849   -4929.8849 
    2180    294.81339    38.069514   -12338.258   -4922.4552   -4922.4552 
    2190    307.66147    39.728598   -12339.921   -5015.4286   -5015.4286 
    2200     311.5178    40.226569   -12340.422   -5081.5376   -5081.5376 
    2210    283.55813    36.616112   -12336.806   -5091.6406   -5091.6406 
    2220    276.20591    35.666714   -12335.857   -5157.9997   -5157.9997 
    2230    286.90655    37.048496   -12337.243   -5198.3758   -5198.3758 
    2240    278.38762    35.948439   -12336.138   -5104.2846   -5104.2846 
    2250    293.40063    37.887083   -12338.076   -5025.3534   -5025.3534 
    2260    331.48971    42.805559   -12343.003   -4998.3871   -4998.3871 
    2270     321.1112    41.465373   -12341.659   -4901.2897   -4901.2897 
    2280    297.89841    38.467885   -12338.655   -4863.9077   -4863.9077 
    2290    316.68755    40.894144   -12341.089    -4989.387    -4989.387 
    2300    305.90442    39.501709   -12339.697     -5063.29     -5063.29 
    2310     265.4035    34.271789   -12334.457   -5060.5172   -5060.5172 
    2320    290.04734    37.454069   -12337.645   -5151.8513   -5151.8513 
    2330    322.56275    41.652813   -12341.852   -5184.0513   -5184.0513 
    2340    290.18996    37.472486   -12337.662   -5055.3672   -5055.3672 
    2350    280.72619    36.250422   -12336.438   -5010.7036   -5010.7036 
    2360    311.49425    40.223528    -12340.42   -5048.9641   -5048.9641 
    2370     305.4539    39.443533   -12339.636   -4992.7644   -4992.7644 
    2380    297.31966     38.39315   -12338.581   -4962.7254   -4962.7254 
    2390     318.0993    41.076443   -12341.272   -5019.3101   -5019.3101 
    2400    304.90626    39.372816   -12339.564   -4996.5185   -4996.5185 
    2410    297.57125    38.425639   -12338.613   -4999.4472   -4999.4472 
    2420    321.63478    41.532984   -12341.731   -5087.2783   -5087.2783 
    2430     287.3269    37.102777   -12337.295   -5049.9608   -5049.9608 
    2440    255.24429    32.959921   -12333.143   -5030.5247   -5030.5247 
    2450    307.02482    39.646386   -12339.843   -5167.5542   -5167.5542 
    2460    314.86045    40.658208   -12340.856   -5123.5737   -5123.5737 
    2470    266.54172    34.418768   -12334.601   -4931.8364   -4931.8364 
    2480    308.53767    39.841743   -12340.034   -4996.4609   -4996.4609 
    2490    346.09726    44.691846   -12344.895   -5084.3488   -5084.3488 
    2500    279.57164    36.101333   -12336.286   -4977.6613   -4977.6613 
    2510    274.80811    35.486214   -12335.672   -5063.3198   -5063.3198 
    2520    320.89374    41.437293    -12341.64   -5224.9404   -5224.9404 
    2530    269.49653    34.800325   -12334.989   -5078.0147   -5078.0147 
    2540    254.60098    32.876849   -12333.058   -4978.8892   -4978.8892 
    2550    341.69939    44.123945   -12344.326    -5077.198    -5077.198 
    2560    341.16366    44.054766   -12344.251   -4942.1151   -4942.1151 
    2570    293.96934    37.960521   -12338.143   -4783.2614   -4783.2614 
    2580    328.50585    42.420252   -12342.618   -4941.4751   -4941.4751 
    2590    314.57408    40.621229   -12340.818   -5012.8512   -5012.8512 
    2600    256.65745    33.142403   -12333.323   -4956.1043   -4956.1043 
    2610    303.20003    39.152488   -12339.346   -5127.2859   -5127.2859 
    2620     334.4218    43.184183   -12343.387   -5224.0377   -5224.0377 
    2630    262.41981    33.886503    -12334.07   -5051.0382   -5051.0382 
    2640    263.84891    34.071043   -12334.257   -5069.3065   -5069.3065 
    2650    319.59465     41.26954   -12341.471   -5196.5695   -5196.5695 
    2660    288.38576    37.239509   -12337.429   -5059.9364   -5059.9364 
    2670    276.30707    35.679777   -12335.865   -4963.3076   -4963.3076 
    2680    322.61486    41.659543   -12341.858   -5013.0216   -5013.0216 
    2690    309.21427    39.929112    -12340.12   -4895.0326   -4895.0326 
    2700    302.17405    39.020003   -12339.205   -4831.8256   -4831.8256 
    2710    353.75019    45.680075    -12345.88   -5024.7518   -5024.7518 
    2720    324.49268    41.902027   -12342.099   -5086.7176   -5086.7176 
    2730     247.2898     31.93275   -12332.115     -5035.13     -5035.13 
    2740    261.59608    33.780134   -12333.971   -5183.7222   -5183.7222 
    2750    294.09779    37.977108   -12338.175   -5266.7132   -5266.7132 
    2760    278.43703    35.954821   -12336.142   -5077.4888   -5077.4888 
    2770    303.31897    39.167847   -12339.358   -4961.5661   -4961.5661 
    2780    343.76302    44.390422   -12344.589   -4974.2696   -4974.2696 
    2790    322.75047    41.677054   -12341.869   -4912.3214   -4912.3214 
    2800    296.33148    38.265546   -12338.455   -4897.3327   -4897.3327 
    2810    295.93615    38.214497   -12338.408   -4996.8346   -4996.8346 
    2820    288.10617    37.203405   -12337.394   -5050.1256   -5050.1256 
    2830    291.02644    37.580502   -12337.771    -5081.788    -5081.788 
    2840    300.91356    38.857234   -12339.052   -5132.8161   -5132.8161 
    2850    288.99766    37.318523   -12337.508   -5103.8161   -5103.8161 
    2860    299.17689    38.632977   -12338.823   -5084.3749   -5084.3749 
    2870    320.06159    41.329837   -12341.528   -5117.4226   -5117.4226 
    2880    285.81866    36.908016   -12337.099     -5035.79     -5035.79 
    2890    264.12434     34.10661    -12334.29   -4918.3501   -4918.3501 
    2900     324.7712    41.937992   -12342.133   -4972.6941   -4972.6941 
    2910    353.75354    45.680507   -12345.881   -5035.4326   -5035.4326 
    2920    292.99896    37.835214   -12338.024   -4976.6253   -4976.6253 
    2930    262.58703    33.908095   -12334.094   -5016.4211   -5016.4211 
    2940    290.06577     37.45645   -12337.652   -5164.1524   -5164.1524 
    2950    291.26906    37.611832   -12337.804   -5172.4097   -5172.4097 
    2960    289.39572    37.369926   -12337.558   -5073.0408   -5073.0408 
    2970    320.22387    41.350792   -12341.546   -5010.7312   -5010.7312 
    2980    320.48594    41.384633   -12341.579   -4923.6604   -4923.6604 
    2990    300.07132    38.748476   -12338.936   -4852.7738   -4852.7738 
    3000    318.11551    41.078537   -12341.272    -4921.263    -4921.263 
    3010    321.94412    41.572929    -12341.77    -5020.148    -5020.148 
    3020    277.99617    35.897892   -12336.086     -5052.06     -5052.06 
    3030    267.84425    34.586965   -12334.775   -5125.1219   -5125.1219 
    3040    295.54752    38.164312   -12338.359   -5198.4473   -5198.4473 
    3050    297.96583    38.476591   -12338.669   -5161.5369   -5161.5369 
    3060    296.16813    38.244452   -12338.435   -5097.5186   -5097.5186 
    3070    303.42463    39.181492   -12339.376   -5045.1911   -5045.1911 
    3080    292.91323    37.824145   -12338.014   -4963.9835   -4963.9835 
    3090    301.96578    38.993108   -12339.183   -4956.6971   -4956.6971 
    3100    323.61135     41.78822   -12341.986   -5010.7064   -5010.7064 
    3110    294.76019    38.062644   -12338.254   -4998.6376   -4998.6376 
    3120     275.4431    35.568211   -12335.754   -5046.0383   -5046.0383 
    3130    311.37071    40.207575   -12340.404   -5180.9666   -5180.9666 
    3140    308.27934    39.808384   -12340.004   -5146.2457   -5146.2457 
    3150    274.73188    35.476371   -12335.661   -5002.4526   -5002.4526 
    3160    303.14878     39.14587   -12339.339   -4985.4218   -4985.4218 
    3170     322.8273    41.686975   -12341.884   -4941.2906   -4941.2906 
    3180    293.42897    37.890742   -12338.077   -4837.1361   -4837.1361 
    3190    311.98599    40.287026   -12340.477   -4926.3247   -4926.3247 
    3200    342.29642     44.20104   -12344.402   -5088.7173   -5088.7173 
    3210    289.89771    37.434748   -12337.626   -5084.1613   -5084.1613 
    3220    247.00552    31.896041    -12332.08   -5097.7118   -5097.7118 
    3230    282.47089    36.475715    -12336.67   -5202.3658   -5202.3658 
    3240    301.59398    38.945097    -12339.14   -5142.3044   -5142.3044 
    3250    295.64262    38.176593   -12338.366   -4996.6375   -4996.6375 
    3260    313.99602    40.546583    -12340.74   -4962.4875   -4962.4875 
    3270    317.70454    41.025469   -12341.219   -4937.7988   -4937.7988 
    3280    304.34587    39.300451   -12339.489   -4911.7792   -4911.7792 
    3290     316.8997    40.921539   -12341.115   -4991.1588   -4991.1588 
    3300    314.64744    40.630703   -12340.827   -5058.5604   -5058.5604 
    3310    274.77805    35.482332   -12335.671    -5046.216    -5046.216 
    3320    269.38178    34.785507   -12334.974    -5101.791    -5101.791 
    3330    297.04263    38.357378   -12338.552    -5156.634    -5156.634 
    3340    302.01538    38.999513   -12339.191   -5070.3198   -5070.3198 
    3350    306.86279    39.625464   -12339.817   -5003.2148   -5003.2148 
    3360    315.95045    40.798961   -12340.994   -5025.8177   -5025.8177 
    3370    294.31337    38.004946   -12338.196   -4987.9421   -4987.9421 
    3380     284.9083    36.790461   -12336.978   -4957.3394   -4957.3394 
    3390    318.20442    41.090018   -12341.285   -5047.9846   -5047.9846 
    3400     319.0549    41.199841   -12341.397   -5080.2834   -5080.2834 
    3410    270.64481    34.948604   -12335.135   -4991.0472   -4991.0472 
    3420     275.6101    35.589776   -12335.778   -5026.8837   -5026.8837 
    3430    321.55049    41.522099    -12341.72   -5125.5938   -5125.5938 
    3440    311.57093     40.23343   -12340.427   -5048.7409   -5048.7409 
    3450    284.54315    36.743309    -12336.93   -4949.3989   -4949.3989 
    3460    303.03961    39.131773   -12339.325   -5010.6153   -5010.6153 
    3470    310.77609    40.130792   -12340.326   -5063.7807   -5063.7807 
    3480    289.54101    37.388687   -12337.577   -5035.4231   -5035.4231 
    3490    297.21369    38.379467   -12338.572   -5074.5791   -5074.5791 
    3500    302.29217    39.035256   -12339.231   -5098.9145   -5098.9145 
    3510    274.80668    35.486029   -12335.674    -5003.189    -5003.189 
    3520    285.01587    36.804352   -12336.993   -4943.2339   -4943.2339 
    3530    331.34733    42.787174   -12342.984    -4951.989    -4951.989 
    3540    331.66601    42.828325   -12343.022   -4901.2761   -4901.2761 
    3550    312.52965     40.35723   -12340.547   -4909.8612   -4909.8612 
    3560    312.38563    40.338633   -12340.533   -5046.6644   -5046.6644 
    3570    289.23227    37.348819   -12337.541   -5127.4475   -5127.4475 
    3580    265.59037     34.29592   -12334.484   -5137.1906   -5137.1906 
    3590     282.4026    36.466898    -12336.66   -5147.8831   -5147.8831 
    3600    295.89998    38.209827   -12338.403   -5060.0213   -5060.0213 
    3610    296.74186     38.31854   -12338.508   -4908.6103   -4908.6103 
    3620    320.51206    41.388006   -12341.581   -4899.6423   -4899.6423 
    3630    328.86152     42.46618   -12342.662   -4998.2889   -4998.2889 
    3640    299.43104    38.665795   -12338.856   -5059.4019   -5059.4019 
    3650    286.10708    36.945261   -12337.136   -5109.2216   -5109.2216 
    3660    287.74656    37.156968    -12337.35   -5142.1915   -5142.1915 
    3670    279.28149    36.063866   -12336.254    -5108.651    -5108.651 
    3680    287.94044    37.182004   -12337.373   -5066.6549   -5066.6549 
    3690    305.39257    39.435613    -12339.63   -5037.8109   -5037.8109 
    3700    300.82974    38.846411   -12339.038   -4986.0356   -4986.0356 
    3710     297.6126    38.430979   -12338.621   -4958.9194   -4958.9194 
    3720    312.28398    40.325507   -12340.519   -5005.9443   -5005.9443 
    3730    312.19233    40.313671   -12340.507   -5030.8914   -5030.8914 
    3740    294.84855    38.074055   -12338.264   -4955.2274   -4955.2274 
    3750    298.81207    38.585867   -12338.776   -4894.2254   -4894.2254 
    3760    322.93694    41.701133   -12341.896   -4966.6083   -4966.6083 
    3770    315.40534    40.728571   -12340.924   -5065.0829   -5065.0829 
    3780    270.79647    34.968187   -12335.157   -5084.1246   -5084.1246 
    3790    263.04883    33.967728   -12334.154   -5122.2381   -5122.2381 
    3800    311.70825    40.251162   -12340.447   -5177.4833   -5177.4833 
    3810    323.16723    41.730871   -12341.927   -5045.7929   -5045.7929 
    3820    292.16486    37.727507   -12337.914   -4846.0836   -4846.0836 
    3830    308.95129    39.895153   -12340.086   -4871.2859   -4871.2859 
    3840    335.14368      43.2774   -12343.476   -4972.6085   -4972.6085 
    3850    303.75247    39.223826   -12339.414   -4964.7347   -4964.7347 
    3860    282.61647    36.494515   -12336.683   -5047.4731   -5047.4731 
    3870    290.66751    37.534153   -12337.729   -5209.7731   -5209.7731 
    3880    272.17961    35.146794   -12335.337   -5212.6804   -5212.6804 
    3890    267.59077    34.554233   -12334.742   -5153.5342   -5153.5342 
    3900    298.94508    38.603042   -12338.798   -5121.6053   -5121.6053 
    3910    300.82411    38.845684   -12339.039    -4985.302    -4985.302 
    3920    297.56789    38.425205   -12338.612   -4877.3454   -4877.3454 
    3930    337.52558    43.584977   -12343.781   -4958.4656   -4958.4656 
    3940    334.28401     43.16639   -12343.363   -4956.5777   -4956.5777 
    3950    289.04261    37.324328    -12337.51   -4855.2484   -4855.2484 
    3960    304.67826    39.343373   -12339.535   -4963.9678   -4963.9678 
    3970    321.75782    41.548872   -12341.748    -5124.568    -5124.568 
    3980    269.02064    34.738873   -12334.927   -5102.4958   -5102.4958 
    3990    251.31888     32.45303   -12332.638    -5129.949    -5129.949 
    4000    302.84972    39.107252   -12339.305   -5255.4171   -5255.4171 
    4010     305.1018    39.398066   -12339.593   -5156.2858   -5156.2858 
    4020    277.60362    35.847202   -12336.032     -4959.96     -4959.96 
    4030    312.10874    40.302878   -12340.496   -4964.2549   -4964.2549 
    4040    338.99256    43.774409   -12343.973   -4962.2917   -4962.2917 
    4050    307.98751    39.770699   -12339.959    -4849.682    -4849.682 
    4060    303.65439     39.21116   -12339.401   -4910.8104   -4910.8104 
    4070    315.85484    40.786615   -12340.984   -5072.2496   -5072.2496 
    4080    279.26141    36.061272   -12336.251   -5069.9908   -5069.9908 
    4090    262.65683    33.917109   -12334.103   -5067.8999   -5067.8999 
    4100    305.29808    39.423411   -12339.619   -5163.8982   -5163.8982 
    4110    313.53356    40.486866   -12340.683   -5099.3445   -5099.3445 
    4120    282.36156    36.461598   -12336.647   -4921.2663   -4921.2663 
    4130    310.76002    40.128716    -12340.32   -4947.7508   -4947.7508 
    4140    344.89257    44.536283   -12344.737   -5028.3467   -5028.3467 
    4150    299.04468    38.615904   -12338.807   -4951.1947   -4951.1947 
    4160    264.99347    34.218841   -12334.404   -4952.8295   -4952.8295 
    4170    299.03059    38.614085   -12338.809   -5098.5602   -5098.5602 
    4180    309.07569    39.911217   -12340.107   -5127.7278   -5127.7278 
    4190    283.60183    36.621756    -12336.81   -5093.3632   -5093.3632 
    4200    286.24046    36.962484   -12337.154   -5145.1042   -5145.1042 
    4210    292.60986     37.78497   -12337.978   -5106.7272   -5106.7272 
    4220    295.15666    38.113841   -12338.302   -4971.0096   -4971.0096 
    4230    327.87889    42.339291   -12342.533   -4941.7428   -4941.7428 
    4240    338.24952     43.67846   -12343.876   -4927.8835   -4927.8835 
    4250    298.61708    38.560688    -12338.75   -4867.3882   -4867.3882 
    4260    286.95071      37.0542   -12337.244   -4974.9136   -4974.9136 
    4270    297.08003    38.362207   -12338.559   -5167.6385   -5167.6385 
    4280    266.40394    34.400977   -12334.591    -5200.301    -5200.301 
    4290    256.84192    33.166224   -12333.352     -5212.14     -5212.14 
    4300    300.67107    38.825921   -12339.023   -5257.6733   -5257.6733 
    4310    302.76432    39.096224    -12339.29   -5052.0292   -5052.0292 
    4320    288.75743    37.287503   -12337.471   -4753.6984   -4753.6984 
    4330    351.00269    45.325288   -12345.521   -4776.8809   -4776.8809 
    4340    377.50917    48.748093   -12348.951   -4900.2891   -4900.2891 
    4350     294.6458    38.047873   -12338.235   -4869.8583   -4869.8583 
    4360     258.3705    33.363611   -12333.546   -4971.6466   -4971.6466 
    4370    311.18632    40.183764   -12340.383   -5220.3837   -5220.3837 
    4380    300.24153    38.770455   -12338.966   -5203.5314   -5203.5314 
    4390    252.40677    32.593509   -12332.776   -5044.0469   -5044.0469 
    4400    291.01296    37.578761   -12337.772   -5090.4213   -5090.4213 
    4410    323.56211    41.781862   -12341.981   -5102.6497   -5102.6497 
    4420    288.44863    37.247627   -12337.435   -4970.8484   -4970.8484 
    4430    297.13836     38.36974   -12338.559   -5007.5915   -5007.5915 
    4440    328.63873     42.43741   -12342.638   -5107.9642   -5107.9642 
    4450    282.61538    36.494374   -12336.683   -4989.9377   -4989.9377 
    4460    265.90478    34.336519    -12334.52   -4941.9848   -4941.9848 
    4470    328.18334    42.378605   -12342.577   -5075.8004   -5075.8004 
    4480     327.9944    42.354208   -12342.551   -5039.8271   -5039.8271 
    4490    282.23248    36.444929    -12336.63   -4940.3105   -4940.3105 
    4500    295.81916    38.199389   -12338.393   -5050.9305   -5050.9305 
    4510    297.19404    38.376929   -12338.572   -5108.4047   -5108.4047 
    4520    272.11753    35.138778   -12335.324   -5034.8164   -5034.8164 
    4530    310.45756     40.08966   -12340.283   -5100.3714   -5100.3714 
    4540    332.70793    42.962869   -12343.163   -5140.4776   -5140.4776 
    4550    277.60557    35.847452   -12336.034   -4978.7417   -4978.7417 
    4560    276.59094    35.716433   -12335.902   -4924.6312   -4924.6312 
    4570     331.3945    42.793265   -12342.993   -5003.2791   -5003.2791 
    4580    315.75862     40.77419   -12340.967   -4937.5871   -4937.5871 
    4590    293.81571    37.940683   -12338.127    -4937.147    -4937.147 
    4600    320.79027    41.423932   -12341.622   -5139.2245   -5139.2245 
    4610     293.6666    37.921428   -12338.116   -5197.9698   -5197.9698 
    4620     249.0284    32.157258   -12332.341   -5115.0512   -5115.0512 
    4630    285.45052    36.860478   -12337.054   -5137.3933   -5137.3933 
    4640    312.09846     40.30155   -12340.499   -5073.2928   -5073.2928 
    4650    291.91703    37.695505   -12337.883   -4865.8927   -4865.8927 
    4660     315.7135    40.768363   -12340.959    -4821.158    -4821.158 
    4670    349.40046     45.11839   -12345.317    -4926.516    -4926.516 
    4680    316.17019    40.827336    -12341.02   -4974.9778   -4974.9778 
    4690    274.61908    35.461804   -12335.649   -5049.7159   -5049.7159 
    4700    275.55712    35.582935   -12335.775   -5196.6688   -5196.6688 
    4710    281.54176    36.355737   -12336.548   -5235.3063   -5235.3063 
    4720    284.70835    36.764642   -12336.956   -5150.0167   -5150.0167 
    4730    294.11384     37.97918   -12338.171    -5048.766    -5048.766 
    4740    308.18696    39.796455   -12339.988   -4951.0872   -4951.0872 
    4750    326.94562    42.218777   -12342.413   -4859.6634   -4859.6634 
    4760    325.20704    41.994273   -12342.188   -4815.2739   -4815.2739 
    4770    310.34555    40.075195   -12340.265   -4896.9187   -4896.9187 
    4780    309.55196    39.972718   -12340.166   -5070.9246   -5070.9246 
    4790    293.58047    37.910306   -12338.104   -5161.4608   -5161.4608 
    4800    259.99878    33.573873   -12333.761   -5140.3088   -5140.3088 
    4810    272.66597    35.209598   -12335.399   -5155.7373   -5155.7373 
    4820    311.77763    40.260121   -12340.458   -5186.0701   -5186.0701 
    4830    299.34275    38.654395   -12338.847   -5075.3455   -5075.3455 
    4840    281.44116    36.342746    -12336.53   -4929.5913   -4929.5913 
    4850    311.61948    40.239699   -12340.433   -4921.0928   -4921.0928 
    4860    329.56133    42.556546   -12342.753   -4986.8321   -4986.8321 
    4870    306.17835    39.537082   -12339.729   -5030.6209   -5030.6209 
    4880    285.83555    36.910197     -12337.1   -5048.0025   -5048.0025 
    4890    288.71374     37.28186   -12337.473    -5053.447    -5053.447 
    4900    302.09479    39.009767   -12339.202   -5056.5643   -5056.5643 
    4910    309.10318    39.914767   -12340.109   -5042.8296   -5042.8296 
    4920     294.2508    37.996866   -12338.188   -4981.2975   -4981.2975 
    4930    289.93565    37.439648   -12337.629   -4957.5935   -4957.5935 
    4940    311.33593    40.203084   -12340.397   -5005.6261   -5005.6261 
    4950    315.81396    40.781337   -12340.975   -5026.0712   -5026.0712 
    4960     303.1925    39.151516   -12339.342   -5037.6189   -5037.6189 
    4970    297.25858    38.385264   -12338.578   -5085.6713   -5085.6713 
    4980       284.72    36.766146   -12336.958   -5090.3884   -5090.3884 
    4990    277.86968    35.881557    -12336.07    -5047.513    -5047.513 
    5000    301.49986    38.932944   -12339.126   -5026.3213   -5026.3213 
    5010     312.5552    40.360529   -12340.554   -4973.9494   -4973.9494 
    5020    305.91473     39.50304   -12339.693   -4939.5478   -4939.5478 
    5030    318.17392     41.08608   -12341.279   -5005.3555   -5005.3555 
    5040    315.48487     40.73884   -12340.934   -5041.5467   -5041.5467 
    5050    284.18248    36.696736   -12336.886   -5012.3223   -5012.3223 
    5060     282.4828    36.477254   -12336.667    -5079.367    -5079.367 
    5070    297.98734    38.479369   -12338.675   -5178.1659   -5178.1659 
    5080    279.51103    36.093506   -12336.284   -5117.4241   -5117.4241 
    5090    278.11187    35.912832     -12336.1   -5017.5938   -5017.5938 
    5100      319.734    41.287534   -12341.483   -5011.5492   -5011.5492 
    5110    332.23102    42.901285   -12343.097   -4994.1361   -4994.1361 
    5120    307.91217    39.760971   -12339.952   -4975.8657   -4975.8657 
    5130    290.08453    37.458871   -12337.651    -5014.886    -5014.886 
    5140    278.69231    35.987785   -12336.178   -5019.1247   -5019.1247 
    5150    287.48628    37.123358   -12337.313   -5010.9163   -5010.9163 
    5160    319.59958    41.270176   -12341.465   -5060.7687   -5060.7687 
    5170    319.03863    41.197741   -12341.393   -5046.7332   -5046.7332 
    5180    290.62068    37.528106   -12337.716   -4967.6346   -4967.6346 
    5190    297.56528    38.424868   -12338.616   -4998.0868   -4998.0868 
    5200    313.04525     40.42381    -12340.62   -5079.9695   -5079.9695 
    5210    287.31303    37.100985   -12337.291    -5065.797    -5065.797 
    5220    276.31952    35.681384   -12335.869   -5077.1629   -5077.1629 
    5230    302.14034    39.015649    -12339.21   -5144.3118   -5144.3118 
    5240    302.63574    39.079621   -12339.273   -5099.4843   -5099.4843 
    5250    286.07876    36.941604    -12337.13   -5009.2067   -5009.2067 
    5260    300.07819    38.749362   -12338.941    -5019.704    -5019.704 
    5270    319.73373      41.2875   -12341.482   -5028.0237   -5028.0237 
    5280    311.15587    40.179833   -12340.372   -4961.6067   -4961.6067 
    5290    297.35676    38.397942   -12338.588   -4942.1669   -4942.1669 
    5300    298.83486     38.58881   -12338.781    -4989.749    -4989.749 
    5310    305.50337     39.44992   -12339.642   -5005.7477   -5005.7477 
    5320    311.24733    40.191643   -12340.385   -5011.9204   -5011.9204 
    5330    306.91701    39.632465   -12339.825   -5040.1593   -5040.1593 
    5340    295.00785    38.094625   -12338.286   -5058.7158   -5058.7158 
    5350    292.12895     37.72287   -12337.915   -5087.1268   -5087.1268 
    5360    291.62484    37.657774   -12337.851   -5117.3927   -5117.3927 
    5370    283.55591    36.615826   -12336.807   -5085.4525   -5085.4525 
    5380      285.417     36.85615   -12337.046   -5036.6088   -5036.6088 
    5390    302.97749    39.123752   -12339.317   -5055.7245   -5055.7245 
    5400    305.90957    39.502373   -12339.696   -5047.8821   -5047.8821 
    5410    295.84902    38.203245   -12338.393   -4966.8233   -4966.8233 
    5420    305.43443    39.441018   -12339.632   -4957.8797   -4957.8797 
    5430    323.16212    41.730211   -12341.926   -5045.8611   -5045.8611 
    5440    302.45011     39.05565   -12339.248   -5042.9213   -5042.9213 
    5450    277.74251    35.865137   -12336.052   -5003.6915   -5003.6915 
    5460    298.80384    38.584804   -12338.777   -5085.7519   -5085.7519 
    5470    313.20158    40.443997    -12340.64   -5126.3007   -5126.3007 
    5480    284.49873    36.737573   -12336.927   -5014.7394   -5014.7394 
    5490    278.86675    36.010311   -12336.198   -4979.4143   -4979.4143 
    5500    310.91933    40.149289   -12340.345   -5066.1674   -5066.1674 
    5510    307.85956    39.754177   -12339.947    -5036.295    -5036.295 
    5520    293.86384    37.946897   -12338.135   -4979.3047   -4979.3047 
    5530    317.27236    40.969661   -12341.164   -5055.7999   -5055.7999 
    5540    312.84499    40.397951   -12340.594    -5058.954    -5058.954 
    5550    277.07165    35.778507   -12335.964   -4953.0703   -4953.0703 
    5560    300.59867    38.816572   -12339.008   -5002.1763   -5002.1763 
    5570    330.82713    42.719999   -12342.919   -5073.0871   -5073.0871 
    5580    295.06548    38.102067   -12338.292   -4978.4342   -4978.4342 
    5590    280.53371    36.225567   -12336.413   -4969.4661   -4969.4661 
    5600    312.25382    40.321612   -12340.518   -5082.1338   -5082.1338 
    5610    302.90887     39.11489   -12339.307   -5042.0515   -5042.0515 
    5620    291.65949    37.662248   -12337.849     -4990.44     -4990.44 
    5630    321.78389    41.552238    -12341.75   -5106.4795   -5106.4795 
    5640    295.84997    38.203368   -12338.398   -5111.8511   -5111.8511 
    5650     246.7473    31.862697   -12332.045   -5033.6622   -5033.6622 
    5660    284.93713    36.794184   -12336.987   -5142.7648   -5142.7648 
    5670    316.64886    40.889147   -12341.089   -5194.6071   -5194.6071 
    5680    278.83026    36.005598   -12336.191   -5020.6402   -5020.6402 
    5690    301.71499    38.960723   -12339.149   -4999.0852   -4999.0852 
    5700    354.90022     45.82858   -12346.031   -5080.6128   -5080.6128 
    5710    306.98772    39.641596   -12339.832   -4903.1547   -4903.1547 
    5720    268.49276    34.670708   -12334.853   -4771.7103   -4771.7103 
    5730    322.48995    41.643413   -12341.841   -4952.0188   -4952.0188 
    5740     325.7781    42.068015   -12342.266   -5050.4519   -5050.4519 
    5750    273.81918    35.358513   -12335.543   -5016.0928   -5016.0928 
    5760    289.75827    37.416742   -12337.609   -5179.4593   -5179.4593 
    5770    302.98711    39.124993   -12339.324   -5302.5828   -5302.5828 
    5780    256.00904    33.058674   -12333.244   -5134.7403   -5134.7403 
    5790    269.44543    34.793727    -12334.98   -5006.6098   -5006.6098 
    5800    335.65222    43.343069   -12343.542   -5004.9264   -5004.9264 
    5810    332.88391    42.985594   -12343.179   -4887.1593   -4887.1593 
    5820    308.24528    39.803986   -12339.991   -4822.3044   -4822.3044 
    5830    325.83097    42.074841   -12342.271   -4986.0893   -4986.0893 
    5840    308.98779    39.899866   -12340.095   -5099.4912   -5099.4912 
    5850    263.39304    34.012177   -12334.198   -5083.8412   -5083.8412 
    5860    274.75019    35.478735   -12335.669   -5145.2823   -5145.2823 
    5870    303.91179    39.244399    -12339.44   -5163.3092   -5163.3092 
    5880    297.89455    38.467386   -12338.658   -4998.9278   -4998.9278 
    5890    305.15507    39.404944   -12339.595   -4906.0941   -4906.0941 
    5900    327.58349    42.301146   -12342.497    -4987.586    -4987.586 
    5910    310.98971    40.158376   -12340.352   -5041.5755   -5041.5755 
    5920    280.01622    36.158742   -12336.348   -5059.1471   -5059.1471 
    5930    277.06348    35.777452   -12335.969   -5119.8809   -5119.8809 
    5940    280.91917    36.275341   -12336.467    -5106.928    -5106.928 
    5950    294.50747     38.03001    -12338.22   -5031.8445   -5031.8445 
    5960    324.56221    41.911005   -12342.106   -5020.2212   -5020.2212 
    5970    323.08975    41.720865   -12341.916   -4991.3895   -4991.3895 
    5980     294.6194    38.044464   -12338.233   -4917.9678   -4917.9678 
    5990    301.84419    38.977407   -12339.168   -4974.3107   -4974.3107 
    6000    320.37739    41.370616   -12341.568   -5113.8012   -5113.8012 
    6010    283.49682    36.608195     -12336.8   -5105.8858   -5105.8858 
    6020    251.63638    32.494029   -12332.679   -5057.9751   -5057.9751 
    6030    289.31727    37.359795   -12337.553   -5130.8182   -5130.8182 
    6040    317.18834    40.958811   -12341.156   -5124.4041   -5124.4041 
    6050    297.42568    38.406841   -12338.595   -4989.9438   -4989.9438 
    6060    307.16721    39.664773   -12339.856   -4986.2811   -4986.2811 
    6070     325.5184     42.03448   -12342.232   -5027.0583   -5027.0583 
    6080    294.04126    37.969808    -12338.16   -4928.4528   -4928.4528 
    6090      283.552    36.615321   -12336.801   -4916.0979   -4916.0979 
    6100    327.06222    42.233834   -12342.431   -5081.5343   -5081.5343 
    6110    324.22466    41.867417   -12342.064   -5114.3837   -5114.3837 
    6120    274.11609    35.396853   -12335.583   -5001.9851   -5001.9851 
    6130    280.17474    36.179212   -12336.369    -5014.271    -5014.271 
    6140    310.92415    40.149911   -12340.346   -5048.6177   -5048.6177 
    6150    303.18434    39.150462   -12339.342   -4982.6521   -4982.6521 
    6160    295.86397    38.205176   -12338.395   -4972.4345   -4972.4345 
    6170    305.39377    39.435768   -12339.629   -5042.9752   -5042.9752 
    6180    300.35251    38.784785   -12338.976    -5085.998    -5085.998 
    6190    296.86468    38.334399   -12338.526   -5142.9256   -5142.9256 
    6200    296.96346    38.347155   -12338.541   -5182.2845   -5182.2845 
    6210    281.73369    36.380521    -12336.57     -5107.05     -5107.05 
    6220    286.29379     36.96937   -12337.159    -5028.373    -5028.373 
    6230     308.3596    39.818748   -12340.013   -4982.8233   -4982.8233 
    6240    306.55465    39.585674   -12339.777   -4888.1544   -4888.1544 
    6250    313.96858    40.543041   -12340.733   -4894.7875   -4894.7875 
    6260    335.50255    43.323741   -12343.522   -5066.9804   -5066.9804 
    6270    299.06084    38.617991   -12338.812   -5145.6584   -5145.6584 
    6280    246.34973    31.811358   -12331.995   -5108.4023   -5108.4023 
    6290    271.36729    35.041899   -12335.233   -5157.9584   -5157.9584 
    6300    308.87206    39.884922   -12340.082   -5171.0234   -5171.0234 
    6310    296.45945    38.282071   -12338.471   -5014.7096   -5014.7096 
    6320     307.6059    39.721423   -12339.911   -4910.0009   -4910.0009 
    6330    334.43559    43.185964   -12343.383    -4911.095    -4911.095 
    6340    315.19532    40.701451   -12340.892   -4904.9431   -4904.9431 
    6350    302.45637    39.056459   -12339.246   -4988.8662   -4988.8662 
    6360    310.18811    40.054865   -12340.251   -5126.6173   -5126.6173 
    6370    280.91063    36.274238   -12336.465    -5104.998    -5104.998 
    6380    268.12398    34.623086   -12334.809   -5042.2945   -5042.2945 
    6390    308.38238    39.821689   -12340.017   -5092.2467   -5092.2467 
    6400     313.6231    40.498428   -12340.694    -5087.236    -5087.236 
    6410    284.44191    36.730236   -12336.918    -5019.583    -5019.583 
    6420    296.19115    38.247425   -12338.439   -5051.1968   -5051.1968 
    6430    313.08062    40.428378   -12340.624   -5081.4452   -5081.4452 
    6440    296.72101    38.315847   -12338.506   -5012.7112   -5012.7112 
    6450    297.12843    38.368457   -12338.559    -4993.519    -4993.519 
    6460    307.75022    39.740058   -12339.935   -5036.7343   -5036.7343 
    6470    296.02384    38.225821   -12338.417   -5044.1318   -5044.1318 
    6480    292.59262    37.782744   -12337.974   -5070.2152   -5070.2152 
    6490    296.58758    38.298617   -12338.492   -5112.3079   -5112.3079 
    6500    287.36416    37.107588   -12337.298   -5081.5633   -5081.5633 
    6510      297.088    38.363236   -12338.553   -5010.3243   -5010.3243 
    6520    322.99705    41.708896   -12341.904   -4935.1915   -4935.1915 
    6530    319.16038    41.213463   -12341.406   -4856.8329   -4856.8329 
    6540    309.41779    39.955394   -12340.145   -4891.5708   -4891.5708 
    6550    318.20151    41.089642   -12341.285   -5069.9059   -5069.9059 
    6560    293.91947    37.954081   -12338.148    -5184.913    -5184.913 
    6570    254.17541    32.821896   -12333.009   -5188.2686   -5188.2686 
    6580    266.21333    34.376363   -12334.566   -5195.9388   -5195.9388 
    6590    303.74028    39.222251   -12339.418   -5178.8883   -5178.8883 
    6600    301.56848    38.941805   -12339.135    -5051.838    -5051.838 
    6610    286.05279     36.93825   -12337.126    -4915.552    -4915.552 
    6620    314.54713    40.617749    -12340.81   -4917.7854   -4917.7854 
    6630    343.19307    44.316824   -12344.514   -4980.4628   -4980.4628 
    6640    315.58533    40.751813   -12340.945   -4986.0416   -4986.0416 
    6650    274.72604    35.475616   -12335.662   -4968.4784   -4968.4784 
    6660    290.02663    37.451395   -12337.642   -5017.4714   -5017.4714 
    6670     323.2555    41.742269   -12341.939   -5078.8379   -5078.8379 
    6680    305.51297     39.45116   -12339.644   -5057.3277   -5057.3277 
    6690    275.77216    35.610702   -12335.798   -5037.5742   -5037.5742 
    6700    288.80617    37.293797   -12337.486   -5112.6601   -5112.6601 
    6710     301.8979    38.984343   -12339.179   -5152.6457   -5152.6457 
    6720    287.87959    37.174147   -12337.364   -5068.9015   -5068.9015 
    6730    295.97085    38.218977   -12338.409   -5013.4843   -5013.4843 
    6740    321.92012     41.56983   -12341.765   -5042.9746   -5042.9746 
    6750    312.60905    40.367484   -12340.561   -5014.7238   -5014.7238 
    6760    291.20618    37.603711   -12337.792   -4946.6497   -4946.6497 
    6770    300.35261    38.784799   -12338.977   -4974.5488   -4974.5488 
    6780    309.43378    39.957458   -12340.152   -5037.4544   -5037.4544 
    6790    296.86454    38.334381   -12338.525   -5036.4225   -5036.4225 
    6800    291.22109    37.605637   -12337.796   -5026.5737   -5026.5737 
    6810    297.11927    38.367274    -12338.56   -5042.9539   -5042.9539 
    6820    296.73533    38.317696   -12338.509   -5038.0286   -5038.0286 
    6830    302.97622    39.123588   -12339.315   -5053.1385   -5053.1385 
    6840    310.95275    40.153603   -12340.348   -5104.9652   -5104.9652 
    6850    297.46712    38.412193   -12338.605   -5115.7605   -5115.7605 
    6860    277.31323    35.809703   -12335.999   -5075.6219   -5075.6219 
    6870    281.67484    36.372922   -12336.564   -5065.1438   -5065.1438 
    6880    297.87297      38.4646   -12338.658   -5065.8187   -5065.8187 
    6890    298.91932    38.599717   -12338.791   -4999.7455   -4999.7455 
    6900    303.15714     39.14695   -12339.337   -4944.2513   -4944.2513 
    6910    322.82443    41.686604    -12341.88   -4961.2543   -4961.2543 
    6920    330.75777    42.711043   -12342.906   -4972.7646   -4972.7646 
    6930    312.12778    40.305337   -12340.497   -4958.4689   -4958.4689 
    6940    295.81513     38.19887    -12338.39   -5013.4872   -5013.4872 
    6950    289.31833    37.359932   -12337.553   -5096.8622   -5096.8622 
    6960    277.59859    35.846552   -12336.038   -5109.6002   -5109.6002 
    6970     276.5582    35.712205   -12335.902   -5116.5005   -5116.5005 
    6980    296.75468    38.320194   -12338.513   -5157.3103   -5157.3103 
    6990    307.41735    39.697074   -12339.891   -5126.6485   -5126.6485 
    7000    297.00232    38.352173   -12338.542   -5017.0127   -5017.0127 
    7010    302.41585    39.051226   -12339.242   -4972.1681   -4972.1681 
    7020    315.57104    40.749968   -12340.945   -4967.7595   -4967.7595 
    7030    302.54409    39.067786   -12339.259   -4920.7256   -4920.7256 
    7040    293.93172    37.955664   -12338.145   -4944.4294   -4944.4294 
    7050    310.46145    40.090161   -12340.285   -5074.7741   -5074.7741 
    7060    301.77338    38.968263   -12339.162   -5116.6105   -5116.6105 
    7070    278.69182    35.987722   -12336.175   -5062.3463   -5062.3463 
    7080    298.30835    38.520821   -12338.712   -5060.8962   -5060.8962 
    7090    326.69905    42.186938   -12342.383   -5056.3921   -5056.3921 
    7100    311.24531    40.191383   -12340.383   -4973.7313   -4973.7313 
    7110    294.28615    38.001431   -12338.191   -4955.9071   -4955.9071 
    7120    298.38394    38.530582   -12338.725   -5026.1014   -5026.1014 
    7130    285.51749    36.869126    -12337.06   -5041.7873   -5041.7873 
    7140    281.97556    36.411754   -12336.601    -5065.596    -5065.596 
    7150    303.85018    39.236442   -12339.431   -5136.4386   -5136.4386 
    7160    301.27042    38.903315   -12339.097   -5121.8807   -5121.8807 
    7170    278.84218    36.007138   -12336.195    -5041.855    -5041.855 
    7180    291.36205    37.623839   -12337.814   -5038.6354   -5038.6354 
    7190    318.31988    41.104928     -12341.3   -5050.7862   -5050.7862 
    7200     319.1628    41.213774   -12341.406   -4993.6459   -4993.6459 
    7210    308.79432    39.874884   -12340.067   -4949.0017   -4949.0017 
    7220    297.47136     38.41274   -12338.604   -4952.0641   -4952.0641 
    7230    294.41529    38.018107   -12338.209   -4994.4587   -4994.4587 
    7240    303.52576     39.19455   -12339.388   -5079.0197   -5079.0197 
    7250    294.21672    37.992465   -12338.186   -5150.9091   -5150.9091 
    7260    268.69467    34.696781   -12334.885   -5157.8332   -5157.8332 
    7270    281.26822    36.320414   -12336.511   -5133.6955   -5133.6955 
    7280    313.04279    40.423493   -12340.619   -5044.6691   -5044.6691 
    7290    316.90344    40.922022   -12341.113   -4891.3477   -4891.3477 
    7300    322.27146    41.615199   -12341.806    -4835.348    -4835.348 
    7310    331.17319    42.764688    -12342.96   -4908.9679   -4908.9679 
    7320     309.5445    39.971756   -12340.164   -4998.7983   -4998.7983 
    7330    284.96074    36.797232   -12336.987   -5088.8733   -5088.8733 
    7340    281.52462    36.353524   -12336.546   -5168.6257   -5168.6257 
    7350    275.89655    35.626766   -12335.818   -5170.9212   -5170.9212 
    7360    280.30844    36.196477   -12336.386   -5113.9187   -5113.9187 
    7370    307.71723    39.735798    -12339.93   -5032.4609   -5032.4609 
    7380    317.97011    41.059761   -12341.253   -4940.6606   -4940.6606 
    7390    311.20001    40.185533   -12340.377   -4947.5541   -4947.5541 
    7400    308.10631     39.78604    -12339.98      -5050.2      -5050.2 
    7410    285.35809    36.848542    -12337.04   -5076.8553   -5076.8553 
    7420    272.86163    35.234863   -12335.422   -5059.8616   -5059.8616 
    7430    308.12456    39.788397   -12339.983   -5109.4004   -5109.4004 
    7440    319.81782    41.298358   -12341.495   -5100.4603   -5100.4603 
    7450    285.49253    36.865903   -12337.054   -5021.3255   -5021.3255 
    7460    288.84524    37.298842   -12337.489    -5048.792    -5048.792 
    7470    310.59913    40.107941   -12340.304    -5071.468    -5071.468 
    7480    292.76395    37.804867   -12337.995   -4973.3517   -4973.3517 
    7490    291.59266    37.653618   -12337.842   -4958.7794   -4958.7794 
    7500    321.89422    41.566486   -12341.762   -5041.6884   -5041.6884 
    7510    314.11571     40.56204   -12340.756   -5016.3917   -5016.3917 
    7520    290.82577    37.554589   -12337.743   -4975.0737   -4975.0737 
    7530    301.37095    38.916297    -12339.11   -5060.9174   -5060.9174 
    7540    294.41212    38.017698   -12338.211   -5106.1853   -5106.1853 
    7550     271.7654    35.093307   -12335.281   -5082.3381   -5082.3381 
    7560    289.32583    37.360901   -12337.552   -5091.1665   -5091.1665 
    7570    320.39649    41.373082   -12341.568   -5048.6999   -5048.6999 
    7580    323.09016    41.720919   -12341.914   -4937.5922   -4937.5922 
    7590    314.42796    40.602361   -12340.794   -4917.1728   -4917.1728 
    7600    304.17866    39.278859   -12339.471   -4976.9354   -4976.9354 
    7610    293.94664     37.95759   -12338.148   -5005.7877   -5005.7877 
    7620    300.12064    38.754843   -12338.948   -5058.0968   -5058.0968 
    7630    293.12055    37.850916   -12338.045   -5117.3982   -5117.3982 
    7640    268.96877    34.732176   -12334.921   -5131.3736   -5131.3736 
    7650    277.73412    35.864053   -12336.054   -5150.5157   -5150.5157 
    7660    310.31292    40.070982   -12340.266   -5145.5895   -5145.5895 
    7670    314.08737    40.558381   -12340.751    -5026.631    -5026.631 
    7680    305.15262    39.404628   -12339.595    -4909.756    -4909.756 
    7690    311.58435    40.235163   -12340.429   -4932.2228   -4932.2228 
    7700    303.04917    39.133007   -12339.326   -4966.3913   -4966.3913 
    7710    291.17172    37.599262   -12337.788   -4949.2899   -4949.2899 
    7720    311.04176    40.165098   -12340.358    -5003.542    -5003.542 
    7730    322.72092    41.673239   -12341.869   -5108.3229   -5108.3229 
    7740    290.89097    37.563009   -12337.755   -5133.4093   -5133.4093 
    7750    259.99236    33.573043    -12333.76   -5094.9477   -5094.9477 
    7760    280.38684    36.206601   -12336.397   -5104.5642   -5104.5642 
    7770    312.19592    40.314135   -12340.511   -5117.2427   -5117.2427 
    7780    299.34836    38.655119   -12338.847   -5048.0358   -5048.0358 
    7790    284.21043    36.700345   -12336.889    -5005.202    -5005.202 
    7800     304.0084    39.256873    -12339.45   -5034.8069   -5034.8069 
    7810    316.04483    40.811149   -12341.005    -5014.737    -5014.737 
    7820    305.74586    39.481233   -12339.671   -4949.7136   -4949.7136 
    7830    311.40362    40.211825   -12340.404   -4967.3723   -4967.3723 
    7840    312.50806    40.354442   -12340.549   -4998.9084   -4998.9084 
    7850     287.7954    37.163275   -12337.352     -4958.35     -4958.35 
    7860    298.37474    38.529395   -12338.719   -4984.6749   -4984.6749 
    7870    330.88782    42.727837   -12342.926   -5067.4785   -5067.4785 
    7880    301.59271    38.944934   -12339.138   -5043.3179   -5043.3179 
    7890    262.53855    33.901835   -12334.087   -5032.8474   -5032.8474 
    7900    289.40255    37.370808   -12337.564   -5140.0528   -5140.0528 
    7910    306.25666    39.547193   -12339.744   -5130.0487   -5130.0487 
    7920    282.11873    36.430241   -12336.618   -4979.0713   -4979.0713 
    7930    300.19279     38.76416   -12338.954   -4961.9196   -4961.9196 
    7940    334.19974    43.155508   -12343.353   -5036.5494   -5036.5494 
    7950    312.01185    40.290366   -12340.482   -5019.1197   -5019.1197 
    7960    288.17467    37.212251   -12337.401   -5031.2674   -5031.2674 
    7970    291.83243    37.684579   -12337.878   -5116.3262   -5116.3262 
    7980    281.45005    36.343894   -12336.535   -5125.3571   -5125.3571 
    7990    281.33394      36.3289   -12336.518   -5078.0502   -5078.0502 
    8000    304.56621    39.328904   -12339.523   -5024.1801   -5024.1801 
    8010    312.87279     40.40154   -12340.593   -4945.1033   -4945.1033 
    8020    320.11944    41.337306   -12341.529    -4945.249    -4945.249 
    8030    324.93142    41.958681   -12342.155   -5042.9748   -5042.9748 
    8040    284.46433     36.73313   -12336.924   -5084.4926   -5084.4926 
    8050    252.83616    32.648957   -12332.834   -5101.7141   -5101.7141 
    8060    288.05693    37.197046    -12337.39   -5167.7595   -5167.7595 
    8070    312.77762    40.389251   -12340.585   -5125.7567   -5125.7567 
    8080    298.23343    38.511147     -12338.7   -4976.1866   -4976.1866 
    8090    312.12727    40.305271   -12340.497   -4920.1999   -4920.1999 
    8100    329.93882    42.605292   -12342.802    -4934.934    -4934.934 
    8110    306.77803    39.614518   -12339.806   -4931.9436   -4931.9436 
    8120    289.70048    37.409279   -12337.599   -4983.6604   -4983.6604 
    8130    294.73657    38.059594   -12338.252    -5079.985    -5079.985 
    8140    294.57049    38.038148   -12338.229   -5131.5308   -5131.5308 
    8150     299.2211    38.638686   -12338.831   -5131.4118   -5131.4118 
    8160    299.69791    38.700256   -12338.894   -5061.8104   -5061.8104 
    8170    290.56178    37.520499    -12337.71    -4983.747    -4983.747 
    8180    307.43431    39.699265   -12339.892   -5021.7593   -5021.7593 
    8190    315.97964     40.80273   -12340.999   -5048.1795   -5048.1795 
    8200    285.16957    36.824198   -12337.013   -4977.5054   -4977.5054 
    8210    287.15689    37.080823    -12337.27   -5022.3882   -5022.3882 
    8220    315.62111    40.756433   -12340.954   -5151.2472   -5151.2472 
    8230    291.90435    37.693867   -12337.885   -5118.7875   -5118.7875 
    8240     276.3351    35.683396   -12335.869   -5059.9238   -5059.9238 
    8250    313.45051    40.476142   -12340.673   -5107.9004   -5107.9004 
    8260    306.11043     39.52831   -12339.723    -5042.346    -5042.346 
    8270    272.28783    35.160769   -12335.345   -4910.6734   -4910.6734 
    8280    305.84043    39.493445   -12339.686   -4945.0188   -4945.0188 
    8290    337.07912    43.527325   -12343.725   -4993.4263   -4993.4263 
    8300    309.82405    40.007854   -12340.197   -4949.1209   -4949.1209 
    8310    303.71258    39.218674   -12339.409   -5013.2447   -5013.2447 
    8320    307.70111    39.733716    -12339.93   -5110.8736   -5110.8736 
    8330    276.93364    35.760685   -12335.949   -5083.3639   -5083.3639 
    8340    275.93212    35.631358    -12335.82   -5090.1793   -5090.1793 
    8350    301.56724    38.941644   -12339.138   -5148.4357   -5148.4357 
    8360    284.94804    36.795593   -12336.986   -5086.2688   -5086.2688 
    8370    280.03809    36.161567   -12336.349   -5038.8922   -5038.8922 
    8380     314.1247    40.563201   -12340.759   -5081.3728   -5081.3728 
    8390    318.04806    41.069828   -12341.263   -5023.8346   -5023.8346 
    8400    307.35132    39.688548   -12339.878   -4922.9965   -4922.9965 
    8410     319.3031    41.231892   -12341.426   -4943.8058   -4943.8058 
    8420    308.12935    39.789016   -12339.983   -4977.7596   -4977.7596 
    8430    282.16438    36.436136   -12336.624    -4975.628    -4975.628 
    8440    293.77354    37.935238   -12338.128   -5048.6317   -5048.6317 
    8450    300.37402    38.787563   -12338.982   -5101.9659   -5101.9659 
    8460    286.31213    36.971739    -12337.16   -5071.2545   -5071.2545 
    8470    301.87154     38.98094   -12339.173   -5081.4674   -5081.4674 
    8480    316.86165    40.916625   -12341.112   -5085.5821   -5085.5821 
    8490    295.36336    38.140532   -12338.331   -4981.8253   -4981.8253 
    8500    289.95533    37.442188   -12337.631   -4917.9197   -4917.9197 
    8510    311.75197    40.256807   -12340.451   -4987.7827   -4987.7827 
    8520    310.04185    40.035978    -12340.23   -5053.1877   -5053.1877 
    8530    288.89978    37.305884   -12337.496    -5055.565    -5055.565 
    8540    288.49387    37.253469   -12337.445   -5094.2588   -5094.2588 
    8550    297.05002    38.358332   -12338.551   -5138.3827   -5138.3827 
    8560    294.68066    38.052374   -12338.244   -5088.6072   -5088.6072 
    8570    291.10822    37.591062   -12337.782   -4990.9422   -4990.9422 
    8580    303.46517    39.186726   -12339.378   -4964.7512   -4964.7512 
    8590    322.54705    41.650786   -12341.845   -4990.5551   -4990.5551 
    8600    315.02614    40.679604   -12340.873   -4975.1661   -4975.1661 
    8610    294.84843    38.074039   -12338.264   -4989.3421   -4989.3421 
    8620    293.19777    37.860887   -12338.053   -5087.1609   -5087.1609 
    8630     287.8184    37.166244   -12337.359   -5125.0063   -5125.0063 
    8640    274.24688    35.413742   -12335.602   -5068.8675   -5068.8675 
    8650    292.81253    37.811142   -12338.002   -5058.7114   -5058.7114 
    8660     319.7383     41.28809   -12341.483   -5058.9858   -5058.9858 
    8670    313.84984    40.527707    -12340.72   -5002.8595   -5002.8595 
    8680    299.74897     38.70685   -12338.898   -4983.4843   -4983.4843 
    8690    295.67611    38.180917   -12338.373   -5004.5953   -5004.5953 
    8700    294.73601    38.059522    -12338.25   -4993.2287   -4993.2287 
    8710    308.92147    39.891303   -12340.083   -5007.2281   -5007.2281 
    8720    319.45106    41.250999   -12341.447   -5048.7915   -5048.7915 
    8730    294.93241    38.084884   -12338.276   -5030.5259   -5030.5259 
    8740    282.48875    36.478023   -12336.666   -5035.3375   -5035.3375 
    8750    305.09632    39.397358   -12339.592    -5103.326    -5103.326 
    8760     303.4075    39.179278   -12339.373   -5089.8883   -5089.8883 
    8770    282.21461    36.442622   -12336.631   -5030.1821   -5030.1821 
    8780    290.85421    37.558261    -12337.75   -5054.7285   -5054.7285 
    8790    302.76775    39.096668   -12339.291   -5057.9572   -5057.9572 
    8800    298.11618    38.496006   -12338.686   -4979.0563   -4979.0563 
    8810    309.65968    39.986628   -12340.178   -4974.1059   -4974.1059 
    8820    321.40631    41.503481   -12341.698   -5046.8978   -5046.8978 
    8830    303.73871    39.222049   -12339.414   -5063.8838   -5063.8838 
    8840    286.23866    36.962251   -12337.153    -5040.568    -5040.568 
    8850    284.46614    36.733364   -12336.925   -5013.9282   -5013.9282 
    8860    291.02034    37.579713    -12337.77   -4981.8854   -4981.8854 
    8870    309.58438    39.976905    -12340.17   -4996.1281   -4996.1281 
    8880    313.20636    40.444614   -12340.639   -5029.9417   -5029.9417 
    8890    295.17163    38.115773   -12338.305   -5016.0035   -5016.0035 
    8900    302.69934    39.087833   -12339.279    -5013.649    -5013.649 
    8910     319.5517    41.263994    -12341.46   -5046.6558   -5046.6558 
    8920    296.15972    38.243367   -12338.436   -5052.3851   -5052.3851 
    8930    270.15424    34.885256   -12335.073   -5056.1074   -5056.1074 
    8940     286.4359    36.987721    -12337.18   -5101.0232   -5101.0232 
    8950    302.67839    39.085129   -12339.279   -5099.4887   -5099.4887 
    8960    302.90051     39.11381   -12339.304   -5049.0545   -5049.0545 
    8970    311.42039    40.213991   -12340.408   -5042.4918   -5042.4918 
    8980    301.71783     38.96109   -12339.154   -5020.6071   -5020.6071 
    8990    281.58654    36.361519    -12336.55   -4963.8809   -4963.8809 
    9000    299.28725    38.647227   -12338.839    -4975.352    -4975.352 
    9010    320.21731    41.349944   -12341.547   -5024.0092   -5024.0092 
    9020    298.08452    38.491918   -12338.682   -5017.8039   -5017.8039 
    9030     287.6965    37.150504   -12337.339   -5028.8958   -5028.8958 
    9040    307.55509     39.71486   -12339.909     -5064.92     -5064.92 
    9050    308.38012    39.821398   -12340.015   -5036.4696   -5036.4696 
    9060    294.85886    38.075385   -12338.265   -4977.0786   -4977.0786 
    9070    303.54946     39.19761   -12339.389   -4973.8139   -4973.8139 
    9080    315.42484    40.731088   -12340.925   -4990.8312   -4990.8312 
    9090    306.22087    39.542572   -12339.735   -4986.2328   -4986.2328 
    9100    295.23222    38.123597   -12338.315   -5004.4128   -5004.4128 
    9110    292.97323    37.831893   -12338.024   -5054.6378   -5054.6378 
    9120    290.77061    37.547467    -12337.74   -5106.4523   -5106.4523 
    9130    283.35758    36.590215   -12336.781   -5127.1362   -5127.1362 
    9140    286.91202    37.049204    -12337.24   -5113.1111   -5113.1111 
    9150    303.42695     39.18179   -12339.374   -5054.5217   -5054.5217 
    9160    314.31507    40.587783   -12340.781   -4977.9291   -4977.9291 
    9170    310.72677    40.124423   -12340.317   -4943.7507   -4943.7507 
    9180    304.46583    39.315943   -12339.507    -4990.553    -4990.553 
    9190    301.29234    38.906146   -12339.099   -5088.9314   -5088.9314 
    9200    287.06173    37.068536   -12337.261   -5149.8346   -5149.8346 
    9210    269.99206    34.864314   -12335.054   -5134.8125   -5134.8125 
    9220    281.06767    36.294518   -12336.485   -5088.2955   -5088.2955 
    9230     311.6168    40.239353   -12340.433    -5013.921    -5013.921 
    9240    330.00905    42.614361   -12342.808    -4906.355    -4906.355 
    9250    330.71499    42.705519   -12342.899   -4855.7634   -4855.7634 
    9260    317.68703    41.023207   -12341.216   -4925.9971   -4925.9971 
    9270    291.23563    37.607515   -12337.799   -5055.5817   -5055.5817 
    9280    270.58893    34.941388   -12335.131   -5172.9854   -5172.9854 
    9290    271.17498    35.017066   -12335.209   -5243.0136   -5243.0136 
    9300    278.76307    35.996922   -12336.188    -5207.172    -5207.172 
    9310    291.81696    37.682582   -12337.873    -5082.773    -5082.773 
    9320    317.52139    41.001818   -12341.194   -4961.4756   -4961.4756 
    9330    334.01942    43.132224   -12343.327   -4872.1757   -4872.1757 
    9340    324.65884    41.923484   -12342.115   -4817.8507   -4817.8507 
    9350    314.56991    40.620691   -12340.812   -4864.2255   -4864.2255 
    9360    307.39002    39.693545   -12339.887   -4990.2774   -4990.2774 
    9370    283.29788    36.582506   -12336.773   -5082.8228   -5082.8228 
    9380    270.86985    34.977664   -12335.166   -5157.3885   -5157.3885 
    9390    290.07013    37.457013   -12337.651   -5244.5035   -5244.5035 
    9400    294.08657    37.975659    -12338.17   -5218.5898   -5218.5898 
    9410    278.17421    35.920882   -12336.109   -5069.1836   -5069.1836 
    9420    296.06073    38.230584   -12338.421   -4985.3863   -4985.3863 
    9430    324.47928    41.900297   -12342.097   -4978.4692   -4978.4692 
    9440    312.00834    40.289913   -12340.482   -4928.5162   -4928.5162 
    9450    301.21254    38.895842   -12339.085   -4932.2685   -4932.2685 
    9460    313.62811    40.499076   -12340.694   -5038.0214   -5038.0214 
    9470    296.50812    38.288356   -12338.481   -5063.5747   -5063.5747 
    9480    275.51841    35.577936   -12335.765   -5018.1128   -5018.1128 
    9490     304.6922    39.345174   -12339.538   -5055.5226   -5055.5226 
    9500    324.04785    41.844585   -12342.042   -5074.8149   -5074.8149 
    9510    289.95168    37.441717   -12337.631   -4987.6858   -4987.6858 
    9520    277.78095      35.8701   -12336.058   -5000.6696   -5000.6696 
    9530    304.43329     39.31174   -12339.507   -5141.1172   -5141.1172 
    9540    299.33946    38.653969   -12338.847   -5158.7618   -5158.7618 
    9550    279.38065    36.076671   -12336.265   -5056.3947   -5056.3947 
    9560     297.3883    38.402014   -12338.594   -5011.8846   -5011.8846 
    9570    319.40557    41.245123   -12341.441   -4996.1529   -4996.1529 
    9580     306.9395    39.635369   -12339.827   -4934.0427   -4934.0427 
    9590     298.0453    38.486854   -12338.677   -4930.3529   -4930.3529 
    9600    309.97077    40.026799   -12340.221   -5015.9405   -5015.9405 
    9610    304.93776    39.376883    -12339.57   -5066.8695   -5066.8695 
    9620    285.56792    36.875638   -12337.065    -5065.444    -5065.444 
    9630    291.26021    37.610689   -12337.801   -5069.9251   -5069.9251 
    9640    315.98156    40.802978   -12340.997    -5045.294    -5045.294 
    9650     317.1604    40.955204   -12341.149   -4963.0557   -4963.0557 
    9660    298.25043    38.513342   -12338.704   -4920.7359   -4920.7359 
    9670    293.18661    37.859446   -12338.051   -4967.7559   -4967.7559 
    9680    297.56904    38.425353   -12338.618   -5028.4971   -5028.4971 
    9690    299.11495    38.624978   -12338.817   -5080.7003   -5080.7003 
    9700    302.18601    39.021547   -12339.214   -5131.4535   -5131.4535 
    9710    299.73179    38.704631   -12338.898    -5141.686    -5141.686 
    9720     282.2014    36.440917   -12336.632   -5109.0504   -5109.0504 
    9730    275.97494    35.636888   -12335.826   -5095.6297   -5095.6297 
    9740    292.69676    37.796192   -12337.989   -5081.1044   -5081.1044 
    9750    301.45045    38.926564   -12339.119   -5012.6299   -5012.6299 
    9760    308.51426     39.83872    -12340.03   -4984.3488   -4984.3488 
    9770    317.06305    40.942632   -12341.137   -4997.5536   -4997.5536 
    9780    302.76752    39.096638   -12339.288   -4951.8213   -4951.8213 
    9790    295.41024    38.146585   -12338.335   -4939.5819   -4939.5819 
    9800    318.76363     41.16223   -12341.357   -5033.4003   -5033.4003 
    9810    310.84906    40.140214   -12340.335   -5058.7058   -5058.7058 
    9820    273.52897    35.321038   -12335.508   -5024.7398   -5024.7398 
    9830    283.83746    36.652182   -12336.843   -5101.8507   -5101.8507 
    9840    309.87852    40.014888   -12340.212   -5148.4527   -5148.4527 
    9850    291.37666    37.625726   -12337.816   -5022.9143   -5022.9143 
    9860    291.38351    37.626611   -12337.815   -4958.7174   -4958.7174 
    9870    323.47205    41.770233   -12341.967   -5018.0357   -5018.0357 
    9880    312.54973    40.359823   -12340.553   -4987.7935   -4987.7935 
    9890    291.44754    37.634878   -12337.823    -4945.879    -4945.879 
    9900    308.64559    39.855678   -12340.049   -5017.8241   -5017.8241 
    9910    308.40138    39.824143   -12340.019   -5057.2948   -5057.2948 
    9920    278.61103    35.977289   -12336.164   -5026.3714   -5026.3714 
    9930    293.59016    37.911558   -12338.103    -5096.056    -5096.056 
    9940    316.42339    40.860033   -12341.058   -5138.5723   -5138.5723 
    9950    288.84431    37.298721   -12337.488   -5016.9306   -5016.9306 
    9960    282.33281    36.457886   -12336.646   -4974.3487   -4974.3487 
    9970    310.09691    40.043088   -12340.238   -5049.2861   -5049.2861 
    9980     307.7339    39.737951   -12339.931   -5019.4793   -5019.4793 
    9990    298.11101    38.495338   -12338.684   -4954.2725   -4954.2725 
   10000    314.74651    40.643495   -12340.838   -5019.9368   -5019.9368 
Loop time of 10.8853 on 1 procs for 10000 steps with 1000 atoms

Performance: 39.687 ns/day, 0.605 hours/ns, 918.671 timesteps/s
99.8% CPU use with 1 MPI tasks x no OpenMP threads

MPI task timing breakdown:
Section |  min time  |  avg time  |  max time  |%varavg| %total
---------------------------------------------------------------
Pair    | 8.7928     | 8.7928     | 8.7928     |   0.0 | 80.78
Neigh   | 1.3424     | 1.3424     | 1.3424     |   0.0 | 12.33
Comm    | 0.087192   | 0.087192   | 0.087192   |   0.0 |  0.80
Output  | 0.58242    | 0.58242    | 0.58242    |   0.0 |  5.35
Modify  | 0.059819   | 0.059819   | 0.059819   |   0.0 |  0.55
Other   |            | 0.02066    |            |       |  0.19

Nlocal:    1000 ave 1000 max 1000 min
Histogram: 1 0 0 0 0 0 0 0 0 0
Nghost:    2042 ave 2042 max 2042 min
Histogram: 1 0 0 0 0 0 0 0 0 0
Neighs:    0 ave 0 max 0 min
Histogram: 1 0 0 0 0 0 0 0 0 0
FullNghs:  33650 ave 33650 max 33650 min
Histogram: 1 0 0 0 0 0 0 0 0 0

Total # of neighbors = 33650
Ave neighs/atom = 33.65
Neighbor list builds = 1000
Dangerous builds not checked

Total wall time: 0:00:10
