
# Define the lattice
variable	lattice_constant equal 6.2045
lattice		diamond ${lattice_constant}
lattice		diamond 6.2045
Lattice spacing in x,y,z = 6.2045 6.2045 6.2045

# Define region
# multiples of lattice spacing
region 		simbox block 0 5 0 5 0 5

# Create Atoms
create_box 	1 simbox
Created orthogonal box = (0 0 0) to (31.0225 31.0225 31.0225)
  1 by 1 by 1 MPI processor grid
create_atoms 	1 box
Created 1000 atoms
  Time spent = 0.000919104 secs
mass		1 18.015

velocity	all create 600.0 97287

# Define Interatomic Potential
pair_style	sw
pair_coeff	* * mW.sw mW
Reading potential file mW.sw with DATE: 2019-02-27

neighbor 	2.0 bin
neigh_modify	delay 10 check no

# Pressure computations
compute		total_press all pressure thermo_temp
compute		peratom all stress/atom NULL
compute		p all reduce sum c_peratom[1] c_peratom[2] c_peratom[3]
variable	press equal -(c_p[1]+c_p[2]+c_p[3])/(3*vol)

# Density computations
variable	total_mass equal mass(all)
variable	v equal vol
print 		${total_mass}
print 		18014.9999999997
18014.9999999997
print		$v
print		29855.9145926406
29855.9145926406

variable 	density equal v_total_mass/(v_v*18.015)
print 		${density}
print 		0.0334942008524663
0.0334942008524663


# Run equilibration
thermo_style	custom step temp ke pe c_total_press v_press
thermo		10
dump		1 all atom 10 ${simname}.dump
dump		1 all atom 10 mW_liquid_6.2045.dump

fix 		1 all nve
#temp 300.0 300.0 100.0 iso 0.0 0.0 1000.0
timestep	0.0005
run		10000
Neighbor list info ...
  update every 1 steps, delay 10 steps, check no
  max neighbors/atom: 2000, page size: 100000
  master list distance cutoff = 6.3065
  ghost atom cutoff = 6.3065
  binsize = 3.15325, bins = 10 10 10
  1 neighbor lists, perpetual/occasional/extra = 1 0 0
  (1) pair sw, perpetual
      attributes: full, newton on
      pair build: full/bin/atomonly
      stencil: full/bin/3d
      bin: standard
Per MPI rank memory allocation (min/avg/max) = 4.438 | 4.438 | 4.438 Mbytes
Step Temp KinEng PotEng c_total_press v_press 
       0          600    77.478531   -12377.971    308.07861    308.07861 
      10    357.29424    46.137722   -12346.571      682.828      682.828 
      20    173.36629    22.386942   -12322.792    577.05937    577.05937 
      30    324.52832    41.906629   -12342.372   -357.33721   -357.33721 
      40    271.13444     35.01183   -12335.462   -461.66899   -461.66899 
      50    140.08931    18.089857   -12318.499   -76.052591   -76.052591 
      60     298.1475    38.500051   -12338.952   -288.59692   -288.59692 
      70    362.55275    46.816757   -12347.278   -161.21372   -161.21372 
      80    248.70961    32.116093   -12332.534    457.40045    457.40045 
      90    339.94376    43.897238   -12344.341    376.36831    376.36831 
     100    409.10487    52.828073   -12353.294     98.17964     98.17964 
     110    253.65339    32.754486   -12333.179    294.15148    294.15148 
     120    246.19726     31.79167   -12332.221    140.69188    140.69188 
     130    350.89452    45.311319   -12345.773   -208.92763   -208.92763 
     140    276.74903    35.736847   -12336.173    41.693692    41.693692 
     150    247.77971    31.996014   -12332.423    199.50638    199.50638 
     160    346.90986    44.796778   -12345.254   -82.546696   -82.546696 
     170     304.9265    39.375428   -12339.819    21.904297    21.904297 
     180    240.02821    30.995056   -12331.419    301.57372    301.57372 
     190    333.88734    43.115168   -12343.564    110.70758    110.70758 
     200      355.857    45.952129   -12346.405   -1.8763322   -1.8763322 
     210    262.61267    33.911406   -12334.341    213.03058    213.03058 
     220    277.50954    35.835052   -12336.273    154.57184    154.57184 
     230    329.98006    42.610617   -12343.062   -35.538967   -35.538967 
     240    288.62749    37.270724   -12337.708      77.6551      77.6551 
     250     277.2744    35.804689    -12336.24    140.26801    140.26801 
     260    316.95695    40.928931   -12341.377    13.909171    13.909171 
     270    297.00959    38.353111   -12338.794    90.452839    90.452839 
     280    283.04789    36.550224   -12336.985    225.43163    225.43163 
     290    333.00606    43.001367   -12343.448    119.54289    119.54289 
     300    334.29765    43.168151   -12343.615     71.28853     71.28853 
     310    278.36632    35.945689   -12336.381      205.762      205.762 
     320    280.45104    36.214891   -12336.653    193.34703    193.34703 
     330    317.61921     41.01445   -12341.462    49.143613    49.143613 
     340    299.17716    38.633012   -12339.075    33.047453    33.047453 
     350    270.55097    34.936486   -12335.373    22.592504    22.592504 
     360    287.40054    37.112286   -12337.554   -96.512987   -96.512987 
     370    298.38773    38.531072   -12338.975   -90.932722   -90.932722 
     380    286.70872    37.022951   -12337.462    66.787778    66.787778 
     390    298.03674    38.485749   -12338.926    152.43736    152.43736 
     400      322.877    41.693392   -12342.137    198.96777    198.96777 
     410    326.60955     42.17538   -12342.617    311.13692    311.13692 
     420    324.67081    41.925029   -12342.367    326.09497    326.09497 
     430    316.30361    40.844566   -12341.288    190.58549    190.58549 
     440    290.87996    37.561586   -12338.002    56.622943    56.622943 
     450    272.37143    35.171563   -12335.611   -37.997497   -37.997497 
     460    268.47175    34.667994   -12335.109   -98.240454   -98.240454 
     470    271.73707    35.089648   -12335.529   -68.662262   -68.662262 
     480    295.81608    38.198993   -12338.641   -2.1232522   -2.1232522 
     490    315.42785    40.731478   -12341.176    67.021127    67.021127 
     500     302.1321    39.014586   -12339.454    194.56049    194.56049 
     510    306.19081     39.53869   -12339.978    283.32426    283.32426 
     520    331.52418    42.810011   -12343.256    237.10736    237.10736 
     530    315.36865    40.723833   -12341.167    155.58138    155.58138 
     540    278.66935     35.98482   -12336.422    106.70654    106.70654 
     550    280.19701    36.182087   -12336.622     51.54844     51.54844 
     560    299.95413    38.733343   -12339.176    14.732174    14.732174 
     570    305.74832    39.481551   -12339.923    32.884102    32.884102 
     580    304.33778    39.299407   -12339.741    66.369204    66.369204 
     590    299.18181    38.633612   -12339.075    84.857987    84.857987 
     600    294.61174    38.043475   -12338.484    113.36868    113.36868 
     610    301.58205    38.943557   -12339.385    167.83891    167.83891 
     620    309.35242    39.946951   -12340.389    205.43894    205.43894 
     630    311.14834    40.178861    -12340.62    168.12835    168.12835 
     640    311.20428    40.186084   -12340.629    95.424366    95.424366 
     650    294.80742    38.068742    -12338.51    83.657219    83.657219 
     660    279.76714    36.126578   -12336.564    79.038968    79.038968 
     670    298.62615     38.56186   -12339.004    1.9829526    1.9829526 
     680     306.4004    39.565755   -12340.011   -14.258302   -14.258302 
     690    281.73014    36.380062   -12336.819    69.643001    69.643001 
     700     282.6049    36.493021   -12336.932    109.41226    109.41226 
     710    309.10801    39.915391    -12340.36    106.90691    106.90691 
     720    305.54809    39.455696   -12339.898    143.65141    143.65141 
     730    295.91329    38.211545    -12338.65    131.45942    131.45942 
     740    309.40792    39.954119   -12340.397    62.382708    62.382708 
     750    304.59418    39.332516   -12339.775    78.170345    78.170345 
     760    287.45467    37.119276   -12337.558    130.94253    130.94253 
     770    298.96316    38.605377   -12339.047    101.46664    101.46664 
     780    308.38416    39.821919   -12340.266    78.981062    78.981062 
     790    297.30684    38.391495   -12338.831    102.11895    102.11895 
     800    303.97841    39.253001   -12339.695     82.24228     82.24228 
     810    306.15151    39.533615   -12339.978    112.73154    112.73154 
     820    284.59551     36.75007   -12337.187    229.64664    229.64664 
     830    301.72542     38.96207   -12339.401    227.13625    227.13625 
     840    337.57588    43.591472    -12344.04    121.56085    121.56085 
     850    307.31921    39.684401   -12340.126    105.24925    105.24925 
     860    270.35233    34.910835   -12335.346    61.462726    61.462726 
     870     289.2403    37.349856   -12337.793   -70.655986   -70.655986 
     880    295.98394    38.220668   -12338.665   -79.298994   -79.298994 
     890    280.45853    36.215858   -12336.653    19.010574    19.010574 
     900    296.52043    38.289945   -12338.732    63.316547    63.316547 
     910    303.50142    39.191407   -12339.635    155.23168    155.23168 
     920    291.37389    37.625368   -12338.061    273.00044    273.00044 
     930    326.37936    42.145655   -12342.589    198.25227    198.25227 
     940    342.91744    44.281232    -12344.73    108.21619    108.21619 
     950    286.85491    37.041829   -12337.479    171.72871    171.72871 
     960    273.79769    35.355738   -12335.791    138.02098    138.02098 
     970    314.92368    40.666374   -12341.114    12.011896    12.011896 
     980    301.90761    38.985597   -12339.428    47.668738    47.668738 
     990    277.74016    35.864832   -12336.301     83.58124     83.58124 
    1000    296.09378    38.234852   -12338.679   -9.0473755   -9.0473755 
    1010    290.64883    37.531741   -12337.974    3.4323094    3.4323094 
    1020    279.85287    36.137649   -12336.574    106.24479    106.24479 
    1030    316.59956    40.882781   -12341.327    123.00207    123.00207 
    1040    327.07784    42.235851   -12342.681    174.97096    174.97096 
    1050    302.85362    39.107756   -12339.545    256.13696    256.13696 
    1060    309.45905     39.96072   -12340.404    196.67174    196.67174 
    1070     304.1369    39.273466   -12339.717    125.03266    125.03266 
    1080    283.66387    36.629766   -12337.066    91.401053    91.401053 
    1090    305.84452    39.493973   -12339.937   -41.530571   -41.530571 
    1100    308.07566    39.782083    -12340.23   -134.00436   -134.00436 
    1110     249.6383    32.236015   -12332.671   -14.012096   -14.012096 
    1120    254.86565    32.911027   -12333.345    91.410587    91.410587 
    1130    330.79921    42.716395   -12343.165    98.175652    98.175652 
    1140    339.34211    43.819547   -12344.265    199.99662    199.99662 
    1150    306.46264    39.573792   -12340.011    268.09401    268.09401 
    1160    307.83305    39.750754   -12340.193    162.95796    162.95796 
    1170    300.90241    38.855794   -12339.299    73.162495    73.162495 
    1180    281.41675    36.339594   -12336.778    67.746433    67.746433 
    1190    289.38475    37.368508    -12337.81    34.256483    34.256483 
    1200    294.15425    37.984399   -12338.427    27.344421    27.344421 
    1210    287.12451    37.076642   -12337.515    108.93037    108.93037 
    1220    311.03154    40.163778   -12340.604    190.62944    190.62944 
    1230      343.236    44.322368   -12344.768    224.77225    224.77225 
    1240    329.49938    42.548546   -12342.992    230.21705    230.21705 
    1250    289.78212    37.419821   -12337.859     177.8449     177.8449 
    1260    275.84581    35.620213   -12336.059    52.001695    52.001695 
    1270    288.89393    37.305129   -12337.747     -62.5891     -62.5891 
    1280    294.99861    38.093431   -12338.537   -82.494056   -82.494056 
    1290    278.67841    35.985989   -12336.426   -23.022475   -23.022475 
    1300    274.60765    35.460329   -12335.899    23.010747    23.010747 
    1310    302.39104    39.048023    -12339.49    53.595143    53.595143 
    1320    322.14844    41.599313   -12342.044    144.53572    144.53572 
    1330    309.75561    39.999016    -12340.44    250.98752    250.98752 
    1340    301.41258    38.921673   -12339.361    228.99824    228.99824 
    1350    309.29408    39.939419   -12340.383    101.14235    101.14235 
    1360    294.90858    38.081806   -12338.523    55.977539    55.977539 
    1370    279.95933    36.151396   -12336.589    88.176733    88.176733 
    1380    302.30262    39.036605   -12339.478    94.654421    94.654421 
    1390    328.04903    42.361261   -12342.806    99.471682    99.471682 
    1400    313.90041    40.534237   -12340.976    156.34729    156.34729 
    1410    290.91267    37.565811   -12338.004    190.79073    190.79073 
    1420     297.2634    38.385886   -12338.828     111.8922     111.8922 
    1430    296.70578     38.31388   -12338.758   -3.4515289   -3.4515289 
    1440    267.23951    34.508874   -12334.948   -42.495578   -42.495578 
    1450    258.54486    33.386126   -12333.823   -8.6587338   -8.6587338 
    1460    301.02394    38.871487   -12339.313    44.223133    44.223133 
    1470    344.91908    44.539706   -12344.986    124.77942    124.77942 
    1480    336.19282    43.412876   -12343.856    251.53993    251.53993 
    1490    303.05364    39.133585   -12339.572    307.14687    307.14687 
    1500    298.67799    38.568554   -12339.009    178.63013    178.63013 
    1510    303.26243    39.160546   -12339.604    -2.097349    -2.097349 
    1520    282.51255    36.481096   -12336.922   -56.448541   -56.448541 
    1530    264.87736    34.203848   -12334.641   -1.9856941   -1.9856941 
    1540    287.90872    37.177908   -12337.619    59.314502    59.314502 
    1550    314.95942    40.670988   -12341.114    148.32239    148.32239 
    1560    322.39341    41.630947   -12342.072    226.65573    226.65573 
    1570    326.59922    42.174046   -12342.617    199.05548    199.05548 
    1580    312.11917    40.304225   -12340.748    109.64617    109.64617 
    1590    273.71584    35.345169   -12335.784    38.255754    38.255754 
    1600    258.22621    33.344979   -12333.782   -18.933215   -18.933215 
    1610    285.40393    36.854462   -12337.296    -52.56668    -52.56668 
    1620    308.79843    39.875415   -12340.319   -2.1772676   -2.1772676 
    1630    311.10889    40.173766   -12340.616      103.385      103.385 
    1640    306.91671    39.632427   -12340.073    215.14015    215.14015 
    1650    310.32807    40.072939   -12340.513    277.89941    277.89941 
    1660    325.08853    41.978969   -12342.422     240.0643     240.0643 
    1670    321.81787    41.556626   -12342.001    157.31215    157.31215 
    1680    292.25834    37.739578    -12338.18    72.936636    72.936636 
    1690    273.51075    35.318685   -12335.759   -39.490288   -39.490288 
    1700    269.69338    34.825745   -12335.267   -116.15794   -116.15794 
    1710    266.31349    34.389297   -12334.829   -96.145585   -96.145585 
    1720    283.59624    36.621033   -12337.061   -41.797399   -41.797399 
    1730    310.33325    40.073608   -12340.518    44.418019    44.418019 
    1740    303.58025    39.201586   -12339.642    223.23052    223.23052 
    1750    306.52031    39.581238   -12340.017    346.11993    346.11993 
    1760    354.92258    45.831467   -12346.277    279.94853    279.94853 
    1770     354.8139    45.817432   -12346.265    216.40501    216.40501 
    1780    287.70131    37.151124   -12337.588    227.42222    227.42222 
    1790    265.32173     34.26123   -12334.697    134.07746    134.07746 
    1800    297.22132    38.380452   -12338.825   -21.730436   -21.730436 
    1810    304.29767    39.294227   -12339.738   -69.283279   -69.283279 
    1820     287.3319    37.103423   -12337.544   -50.884146   -50.884146 
    1830    279.63779    36.109876    -12336.55   -25.034551   -25.034551 
    1840    282.98681    36.542338   -12336.982     43.96454     43.96454 
    1850    300.37751    38.788013   -12339.229    123.83811    123.83811 
    1860    315.37167    40.724223   -12341.167    181.57843    181.57843 
    1870    313.50754    40.483506   -12340.924    201.76408    201.76408 
    1880    313.78004    40.518694   -12340.961    144.14954    144.14954 
    1890     306.4497    39.572121   -12340.015    75.073794    75.073794 
    1900    282.38141    36.464161   -12336.903    56.251203    56.251203 
    1910    283.93443    36.664705   -12337.105    -4.587711    -4.587711 
    1920    297.23355    38.382031   -12338.827   -53.739649   -53.739649 
    1930    278.66158    35.983816   -12336.424    36.269907    36.269907 
    1940    274.69756    35.471939   -12335.908    134.11585    134.11585 
    1950    315.48049    40.738275   -12341.183     123.0793     123.0793 
    1960    327.40115    42.277601   -12342.722    168.53044    168.53044 
    1970    308.78747       39.874   -12340.312     259.2088     259.2088 
    1980    319.70933    41.284348   -12341.726    204.34693    204.34693 
    1990    321.29724    41.489396   -12341.935    100.49315    100.49315 
    2000    280.51987     36.22378   -12336.662    95.013444    95.013444 
    2010    270.34645    34.910076   -12335.347    52.906264    52.906264 
    2020    299.57743    38.684698   -12339.129   -47.148617   -47.148617 
    2030    299.44167    38.667167    -12339.11   -22.621583   -22.621583 
    2040    286.33033    36.974089   -12337.412    97.767092    97.767092 
    2050    304.60079     39.33337   -12339.774    170.52024    170.52024 
    2060    329.09827     42.49675   -12342.941    187.86733    187.86733 
    2070     320.1985    41.347516   -12341.789    194.11727    194.11727 
    2080    301.20423    38.894769   -12339.335    134.85123    134.85123 
    2090    290.93863    37.569163   -12338.011    36.272072    36.272072 
    2100    280.92129    36.275615   -12336.716   -18.635456   -18.635456 
    2110    279.81586     36.13287   -12336.573   -38.384873   -38.384873 
    2120    289.17363    37.341247   -12337.783   -23.398444   -23.398444 
    2130    294.28245    38.000954   -12338.442    48.270373    48.270373 
    2140     298.3038    38.520234    -12338.96    123.05689    123.05689 
    2150    315.88924    40.791057   -12341.233    139.63206    139.63206 
    2160    321.96328    41.575403    -12342.02     165.9944     165.9944 
    2170    301.26695    38.902867   -12339.342    219.08621    219.08621 
    2180    299.72681    38.703988   -12339.143    182.49465    182.49465 
    2190    317.10145    40.947591   -12341.392    97.795885    97.795885 
    2200    303.15554    39.146744   -12339.589    78.137212    78.137212 
    2210    279.42444    36.082325    -12336.52    41.432047    41.432047 
    2220    284.14722    36.692182   -12337.134   -51.788837   -51.788837 
    2230    280.95979    36.280586   -12336.723   -43.084535   -43.084535 
    2240    275.13763    35.528765   -12335.966    45.997313    45.997313 
    2250    309.65501    39.986026   -12340.429    76.498823    76.498823 
    2260    329.49742    42.548293   -12342.994    145.43674    145.43674 
    2270    304.05463    39.262843   -12339.701    264.34874    264.34874 
    2280    307.68959    39.732229   -12340.172     231.9179     231.9179 
    2290    324.18824    41.862714    -12342.31    118.59488    118.59488 
    2300    286.46673    36.991702   -12337.431    104.90771    104.90771 
    2310      270.801    34.968773   -12335.404    53.361844    53.361844 
    2320      312.528    40.357017   -12340.803   -58.103057   -58.103057 
    2330    308.25253    39.804922   -12340.249   -6.8285863   -6.8285863 
    2340    275.98445    35.638116   -12336.074    97.060613    97.060613 
    2350    296.01017    38.224055   -12338.666    75.516368    75.516368 
    2360     311.7718    40.259369   -12340.704    88.639589    88.639589 
    2370    295.50783    38.159187   -12338.597    163.99799    163.99799 
    2380    308.49852    39.836687   -12340.278    143.01419    143.01419 
    2390    316.19182    40.830129   -12341.275     128.3072     128.3072 
    2400    296.34445    38.267221   -12338.704    168.42232    168.42232 
    2410    315.02056    40.678883   -12341.122    100.49112    100.49112 
    2420    313.91084    40.535585   -12340.983    63.188645    63.188645 
    2430    262.15044    33.851719   -12334.286    118.61257    118.61257 
    2440    278.84619    36.007656   -12336.446    17.838989    17.838989 
    2450    321.88262    41.564988   -12342.016   -70.744921   -70.744921 
    2460    280.37223    36.204715   -12336.642    103.86931    103.86931 
    2470    275.53471    35.580041   -12336.013    184.79572    184.79572 
    2480    342.80082    44.266174   -12344.718    68.003066    68.003066 
    2490    315.91846     40.79483   -12341.239    131.18324    131.18324 
    2500    266.16398    34.369991     -12334.8    170.32064    170.32064 
    2510    311.47861    40.221509   -12340.669   -33.564083   -33.564083 
    2520    300.72459    38.832832    -12339.28   -42.148847   -42.148847 
    2530    240.54778    31.062147   -12331.491    116.59424    116.59424 
    2540    297.89498    38.467443   -12338.909    47.619163    47.619163 
    2550    351.22839    45.354433   -12345.807    60.582427    60.582427 
    2560    303.16261    39.147655   -12339.582    299.39305    299.39305 
    2570     312.3467    40.333605   -12340.773      283.188      283.188 
    2580    338.95868    43.770034   -12344.221    146.73243    146.73243 
    2590    276.95757    35.763776   -12336.199    212.20303    212.20303 
    2600    275.81504     35.61624    -12336.05    132.80826    132.80826 
    2610    338.97051    43.771562   -12344.225    -75.02577    -75.02577 
    2620    295.50051    38.158242     -12338.6    11.735723    11.735723 
    2630    248.36158    32.071151   -12332.501    103.24631    103.24631 
    2640    303.04585    39.132579    -12339.58   -50.500111   -50.500111 
    2650    305.37045    39.432757   -12339.878   -25.526809   -25.526809 
    2660    266.61279    34.427946   -12334.861    126.92677    126.92677 
    2670    302.91986    39.116309    -12339.56    94.720524    94.720524 
    2680    316.88512    40.919657   -12341.366    151.00726    151.00726 
    2690    291.41798    37.631062   -12338.064    314.99672    314.99672 
    2700    338.30963    43.686222    -12344.13     214.1168     214.1168 
    2710    357.51507    46.166238   -12346.618    82.336674    82.336674 
    2720    279.14325    36.046015   -12336.481    143.63364    143.63364 
    2730    252.83594    32.648928   -12333.084    49.353711    49.353711 
    2740    287.91681    37.178952   -12337.626   -147.57339   -147.57339 
    2750    275.78796    35.612743   -12336.053   -64.114652   -64.114652 
    2760    277.47487    35.830576   -12336.266    102.13515    102.13515 
    2770    329.86556    42.595832   -12343.042     115.5376     115.5376 
    2780    334.75363    43.227033   -12343.672    178.65044    178.65044 
    2790    305.04547    39.390791   -12339.829    263.47331    263.47331 
    2800    301.64481    38.951661   -12339.394    202.07334    202.07334 
    2810    295.57916    38.168399    -12338.61    125.16887    125.16887 
    2820    288.67819     37.27727   -12337.716    94.231964    94.231964 
    2830    301.23034     38.89814   -12339.342    19.752592    19.752592 
    2840    293.05913    37.842985   -12338.284    5.2200448    5.2200448 
    2850    287.78539    37.161982   -12337.599    43.201928    43.201928 
    2860    316.75256    40.902538   -12341.348     1.263831     1.263831 
    2870    303.45011    39.184781    -12339.63    22.911809    22.911809 
    2880    257.76971    33.286031   -12333.719    170.41162    170.41162 
    2890    293.49346    37.899071   -12338.337      190.876      190.876 
    2900    356.50029    46.035198   -12346.486    107.25544    107.25544 
    2910    323.42336    41.763945   -12342.207    156.96324    156.96324 
    2920    269.90151    34.852621   -12335.287    187.66016    187.66016 
    2930    284.17211    36.695396   -12337.138    37.038972    37.038972 
    2940    294.64798    38.048154   -12338.492   -63.686153   -63.686153 
    2950    279.92916    36.147501   -12336.584 -0.017660999 -0.017660999 
    2960    302.90484     39.11437   -12339.556    61.176609    61.176609 
    2970    321.87273     41.56371   -12342.009    134.39939    134.39939 
    2980    302.11633    39.012549   -12339.451    254.73234    254.73234 
    2990    309.96043    40.025465   -12340.465    264.45452    264.45452 
    3000    332.58929     42.94755   -12343.395    170.91717    170.91717 
    3010    301.21113     38.89566   -12339.337     126.0723     126.0723 
    3020     268.8759    34.720183   -12335.156    70.119347    70.119347 
    3030    286.93573    37.052265   -12337.495   -38.804335   -38.804335 
    3040    297.84424     38.46089   -12338.904    -62.09731    -62.09731 
    3050    292.23197    37.736173   -12338.176    -9.351157    -9.351157 
    3060    299.42666     38.66523   -12339.108    37.424943    37.424943 
    3070    293.62186     37.91565   -12338.357    119.16614    119.16614 
    3080    292.25907    37.739672   -12338.177    177.25947    177.25947 
    3090    320.69493    41.411621   -12341.857    143.87321    143.87321 
    3100    312.28605    40.325775    -12340.77    146.80715    146.80715 
    3110    279.46926    36.088112   -12336.524    142.39079    142.39079 
    3120    300.79855    38.842382   -12339.284    6.5933249    6.5933249 
    3130    315.61185    40.755237   -12341.202   -53.905883   -53.905883 
    3140    278.35987    35.944856   -12336.381    60.578117    60.578117 
    3150    284.98046    36.799779   -12337.238    111.42774    111.42774 
    3160    318.07106    41.072797    -12341.52    137.92506    137.92506 
    3170    298.46037    38.540452   -12338.979    268.74355    268.74355 
    3180     302.2871      39.0346   -12339.471    271.57162    271.57162 
    3190    346.72764    44.773247   -12345.222    117.35448    117.35448 
    3200    319.77442    41.292754   -12341.738     77.53454     77.53454 
    3210    257.08219    33.197251   -12333.631    81.673907    81.673907 
    3220     268.3771    34.655772   -12335.096   -40.406108   -40.406108 
    3230    294.72518    38.058123   -12338.503   -65.794564   -65.794564 
    3240     289.6413    37.401637    -12337.84    62.465294    62.465294 
    3250    303.98226    39.253498   -12339.695    127.11147    127.11147 
    3260    316.40163    40.857222   -12341.301    162.51262    162.51262 
    3270    305.31101    39.425081   -12339.864    220.34503    220.34503 
    3280    315.27226    40.711386   -12341.152     180.6742     180.6742 
    3290    325.92656    42.087185   -12342.533    102.23701    102.23701 
    3300    290.66813    37.534232   -12337.974    106.72434    106.72434 
    3310    267.63021    34.559325   -12334.996    69.064355    69.064355 
    3320     287.7279    37.154559   -12337.597   -16.220209   -16.220209 
    3330    297.71024    38.443587   -12338.885    25.632605    25.632605 
    3340    302.49886    39.061946   -12339.502    105.81242    105.81242 
    3350    316.87804    40.918742   -12341.363    97.448066    97.448066 
    3360    300.28473    38.776033   -12339.218    130.52023    130.52023 
    3370    281.31361    36.326276   -12336.763    185.69054    185.69054 
    3380    311.12369    40.175677   -12340.618    111.77483    111.77483 
    3390     328.1941    42.379994   -12342.828    43.001005    43.001005 
    3400    282.30273    36.454001   -12336.892    123.66367    123.66367 
    3410    266.60386    34.426793   -12334.862    128.59499    128.59499 
    3420    311.60275    40.237539   -12340.683    13.373427    13.373427 
    3430    317.05855    40.942051   -12341.387     48.00133     48.00133 
    3440    287.22318    37.089383   -12337.526    173.57496    173.57496 
    3450    298.28069    38.517249   -12338.958    155.81935    155.81935 
    3460    313.92775    40.537769   -12340.983    95.439162    95.439162 
    3470    294.55277    38.035859   -12338.475    115.08844    115.08844 
    3480    296.56555    38.295772   -12338.736    72.465507    72.465507 
    3490    306.87129    39.626561   -12340.072    4.1085548    4.1085548 
    3500    276.93807    35.761258   -12336.201    64.695611    64.695611 
    3510    268.96085    34.731153   -12335.167    140.56708    140.56708 
    3520    314.94159    40.668686   -12341.113    146.63649    146.63649 
    3530    332.83106    42.978769   -12343.423    215.87733    215.87733 
    3540    319.30727    41.232431   -12341.671    270.94714    270.94714 
    3550    322.77061    41.679655   -12342.123    173.08148    173.08148 
    3560    305.44792     39.44276   -12339.886    69.599365    69.599365 
    3570    272.19161    35.148343   -12335.586    20.519815    20.519815 
    3580    276.78327    35.741269   -12336.182   -46.568758   -46.568758 
    3590    287.71814    37.153298   -12337.597   -14.061047   -14.061047 
    3600    283.53491    36.613113   -12337.051    153.42613    153.42613 
    3610    309.04673    39.907477   -12340.349    229.60355    229.60355 
    3620    335.46689    43.319136   -12343.766    170.57289    170.57289 
    3630    313.85363    40.528197   -12340.969    124.52455    124.52455 
    3640    293.05117    37.841957   -12338.281    73.262553    73.262553 
    3650    292.04384     37.71188   -12338.155    5.5933837    5.5933837 
    3660    278.96166    36.022566   -12336.463    7.6386601    7.6386601 
    3670    279.22418    36.056466   -12336.496    41.491547    41.491547 
    3680    299.85743    38.720855   -12339.164     62.90608     62.90608 
    3690    301.54252    38.938452   -12339.381    117.90175    117.90175 
    3700     295.4012    38.145418   -12338.585    169.18979    169.18979 
    3710    309.76668    40.000446   -12340.443    128.62034    128.62034 
    3720    314.19004    40.571638   -12341.016    77.750539    77.750539 
    3730     293.1887    37.859716   -12338.299     140.6732     140.6732 
    3740    291.30454    37.616414   -12338.054    231.30228    231.30228 
    3750    322.78159    41.681073   -12342.125    202.09636    202.09636 
    3760    329.36392    42.531055   -12342.977    123.95913    123.95913 
    3770    285.83603     36.91026    -12337.35    101.13839    101.13839 
    3780     262.4039    33.884448    -12334.32    38.964548    38.964548 
    3790    299.02956    38.613952   -12339.058   -72.757897   -72.757897 
    3800    315.00834    40.677306   -12341.124   -3.4414342   -3.4414342 
    3810    286.65881    37.016506   -12337.453    202.74844    202.74844 
    3820     301.1907    38.893022   -12339.332    238.69923    238.69923 
    3830    337.02816    43.520744   -12343.968    180.92278    180.92278 
    3840     316.5995    40.882774   -12341.324    223.30707    223.30707 
    3850    294.35468     38.01028   -12338.448    178.15109    178.15109 
    3860    300.78779    38.840994   -12339.286   0.40297226   0.40297226 
    3870     277.4545    35.827946   -12336.269   -60.011478   -60.011478 
    3880     260.4252    33.628936   -12334.066    -50.43548    -50.43548 
    3890    287.21341    37.088122   -12337.532    -59.67882    -59.67882 
    3900    293.26146    37.869112   -12338.312    59.645776    59.645776 
    3910    288.76045    37.287892   -12337.724    201.25337    201.25337 
    3920    330.34405    42.657619   -12343.102    157.57436    157.57436 
    3930    337.94171    43.638712   -12344.086    168.15392    168.15392 
    3940    294.65662     38.04927   -12338.484     299.7993     299.7993 
    3950    308.07675    39.782223   -12340.222    230.81325    230.81325 
    3960    331.90451    42.859123   -12343.308    71.080743    71.080743 
    3970    281.37234    36.333859   -12336.773    75.599122    75.599122 
    3980    252.82287    32.647241   -12333.081    34.010244    34.010244 
    3990    297.15475    38.371856   -12338.818   -128.59047   -128.59047 
    4000    300.64269    38.822257   -12339.267   -77.670158   -77.670158 
    4010    270.47646    34.926864   -12335.362    106.58112    106.58112 
    4020    300.89108    38.854331   -12339.296     119.2403     119.2403 
    4030     332.4483    42.929343   -12343.377    140.42511    140.42511 
    4040     310.1794     40.05374   -12340.492    282.91264    282.91264 
    4050    310.77138    40.130183    -12340.57    259.52048    259.52048 
    4060    325.40815    42.020242   -12342.467     113.4123     113.4123 
    4070    287.37596    37.109112   -12337.549    105.01637    105.01637 
    4080    264.26409    34.124656    -12334.56     84.74751     84.74751 
    4090     300.2245    38.768256   -12339.213    -38.61848    -38.61848 
    4100    307.97946     39.76966   -12340.215   -3.7246698   -3.7246698 
    4110    277.63493    35.851245   -12336.287    166.24172    166.24172 
    4120    304.32939    39.298323   -12339.738    162.12177    162.12177 
    4130    343.53054    44.360403    -12344.81    103.18446    103.18446 
    4140    307.44504     39.70065   -12340.142     191.6268     191.6268 
    4150     272.7401    35.219171   -12335.654    211.35786    211.35786 
    4160    298.79319     38.58343   -12339.027    86.686845    86.686845 
    4170      309.576    39.975823    -12340.42    47.393935    47.393935 
    4180    288.92619    37.309295   -12337.748    52.783951    52.783951 
    4190    288.31308    37.230123   -12337.672   -26.516675   -26.516675 
    4200    286.36035    36.977966    -12337.42   -18.300924   -18.300924 
    4210    284.39604    36.724312   -12337.162    91.202405    91.202405 
    4220    318.14961    41.082941   -12341.526    126.05484    126.05484 
    4230    333.96137    43.124727   -12343.571    184.20869    184.20869 
    4240    303.85834    39.237496   -12339.676    302.34108    302.34108 
    4250    300.06501     38.74766   -12339.187    244.18001    244.18001 
    4260    311.20546    40.186236   -12340.633    75.850271    75.850271 
    4270    276.60915    35.718784   -12336.158    19.443899    19.443899 
    4280    260.04834    33.580272   -12334.016   -66.594708   -66.594708 
    4290    292.60829    37.784768   -12338.231   -198.69168   -198.69168 
    4300     283.4986    36.608425   -12337.051   -47.610971   -47.610971 
    4310    267.01346    34.479685   -12334.912    252.84145    252.84145 
    4320    339.34723    43.820208   -12344.264    286.34579    286.34579 
    4330    382.52456    49.395735   -12349.849    244.44248    244.44248 
    4340    311.38809    40.209819   -12340.647    340.15059    340.15059 
    4350    274.46792    35.442285   -12335.875    267.20227    267.20227 
    4360    318.67525    41.150817   -12341.599    9.7453278    9.7453278 
    4370     302.2908    39.035078    -12339.48   -21.549568   -21.549568 
    4380    251.95103    32.534659   -12332.967    79.604144    79.604144 
    4390    286.22061     36.95992   -12337.402     3.621134     3.621134 
    4400     316.3386    40.849084   -12341.297   -9.6982016   -9.6982016 
    4410    285.12143    36.817983   -12337.254    127.34292    127.34292 
    4420    298.19617    38.506335   -12338.945    101.33508    101.33508 
    4430    329.86265    42.595455   -12343.045     18.10834     18.10834 
    4440    282.81703    36.520414   -12336.959    145.86048    145.86048 
    4450    264.37498    34.138975   -12334.572    198.17251    198.17251 
    4460    325.05264    41.974336   -12342.422     70.51218     70.51218 
    4470    327.13325    42.243007   -12342.689     106.0539     106.0539 
    4480     287.1941    37.085628   -12337.521     193.0291     193.0291 
    4490    301.45256    38.926836   -12339.371    79.823089    79.823089 
    4500    297.11685    38.366962   -12338.811    33.291823    33.291823 
    4510    269.88611    34.850632   -12335.285    104.08223    104.08223 
    4520    310.55043    40.101652   -12340.545    23.422763    23.422763 
    4530    331.36186     42.78905   -12343.239   -22.290849   -22.290849 
    4540    273.26185    35.286544   -12335.722    133.37388    133.37388 
    4550    272.70921    35.215182   -12335.651    177.36965    177.36965 
    4560    327.56227    42.298405   -12342.747    113.40312    113.40312 
    4570    314.43175     40.60285   -12341.044    212.89679    212.89679 
    4580    301.16369    38.889533   -12339.326    237.38377    237.38377 
    4590    332.54452    42.941768    -12343.39    51.847349    51.847349 
    4600    300.97441    38.865092   -12339.309   -8.2658987   -8.2658987 
    4610    251.08948    32.423407   -12332.856      28.9943      28.9943 
    4620    281.09417    36.297939   -12336.741   -55.843888   -55.843888 
    4630    298.85355    38.591224   -12339.037   -23.726572   -23.726572 
    4640    277.76078    35.867495   -12336.303    185.63041    185.63041 
    4650    310.37578    40.079099   -12340.519    265.74695    265.74695 
    4660    352.13008    45.470869   -12345.919    232.08837    232.08837 
    4670     326.0711    42.105849   -12342.548    244.51462    244.51462 
    4680    291.10078    37.590101   -12338.028    177.09182    177.09182 
    4690    288.04836     37.19594   -12337.638    2.5581145    2.5581145 
    4700    281.46376    36.345665   -12336.787   -82.638267   -82.638267 
    4710     276.4065    35.692616   -12336.133   -66.430658   -66.430658 
    4720     282.5666    36.488075   -12336.929   -19.494431   -19.494431 
    4730    295.05873    38.101195   -12338.541    77.823897    77.823897 
    4740    316.75243    40.902521   -12341.345    214.33903    214.33903 
    4750    324.08955     41.84997   -12342.292      320.178      320.178 
    4760    320.10576     41.33554   -12341.776    293.31164    293.31164 
    4770    323.92508    41.828732   -12342.272     151.7706     151.7706 
    4780    304.51925     39.32284   -12339.767     57.83519     57.83519 
    4790    265.18895    34.244084   -12334.681    41.193829    41.193829 
    4800    272.70889     35.21514   -12335.654   -26.851591   -26.851591 
    4810    305.51909     39.45195   -12339.899   -99.511557   -99.511557 
    4820    289.17973    37.342035   -12337.783   -7.2336477   -7.2336477 
    4830    273.19773    35.278265   -12335.714    147.29384    147.29384 
    4840    308.73959    39.867817   -12340.311    185.37785    185.37785 
    4850    332.55933     42.94368   -12343.389     155.3507     155.3507 
    4860    311.91641    40.278042   -12340.719    138.81039    138.81039 
    4870    289.95164    37.441711   -12337.881     122.4844     122.4844 
    4880    290.30732    37.487642   -12337.928    90.453173    90.453173 
    4890    301.60052    38.945942   -12339.388    62.269116    62.269116 
    4900    304.85877    39.366683    -12339.81    73.723053    73.723053 
    4910    289.86299    37.430264    -12337.87    135.25632    135.25632 
    4920    290.50334    37.512954   -12337.952    155.06417    155.06417 
    4930    312.11809    40.304085   -12340.747    126.04254    126.04254 
    4940    315.71755    40.768887   -12341.211    130.64874    130.64874 
    4950    307.75842    39.741117   -12340.182    121.86601    121.86601 
    4960    302.37673    39.046174   -12339.489    67.606099    67.606099 
    4970    284.28358     36.70979    -12337.15    50.953874    50.953874 
    4980    276.29175    35.677798   -12336.116     66.92108     66.92108 
    4990    298.37358    38.529245   -12338.973    76.464314    76.464314 
    5000    305.16295    39.405962   -12339.848    138.93589    138.93589 
    5010    303.52627    39.194616   -12339.634     172.6342     172.6342 
    5020      321.355    41.496855   -12341.941    121.89431    121.89431 
    5030      316.251    40.837772   -12341.282    128.57073    128.57073 
    5040    288.59796     37.26691   -12337.705    170.02799    170.02799 
    5050    294.18996     37.98901    -12338.43    77.877041    77.877041 
    5060    300.98903    38.866979   -12339.313    -31.90078    -31.90078 
    5070    271.18056    35.017786   -12335.456    11.908966    11.908966 
    5080    273.53813    35.322221   -12335.759    71.892909    71.892909 
    5090    316.62702    40.886328   -12341.331     79.05215     79.05215 
    5100    326.18288    42.120285   -12342.564     130.3809     130.3809 
    5110    308.63836    39.854745   -12340.295    156.64771    156.64771 
    5120    295.35871    38.139931   -12338.582    124.59399    124.59399 
    5130    279.76894    36.126811   -12336.566    137.06979    137.06979 
    5140    290.08462    37.458883   -12337.898     126.1531     126.1531 
    5150    321.06832    41.459836   -12341.905    57.933681    57.933681 
    5160    311.39169    40.210284   -12340.653    89.922114    89.922114 
    5170     287.4932    37.124252   -12337.561    168.97857    168.97857 
    5180     306.3895    39.564347   -12340.007    128.95364    128.95364 
    5190    316.08384    40.816186   -12341.262     81.36426     81.36426 
    5200    284.01362    36.674931   -12337.113    109.71663    109.71663 
    5210    282.16488    36.436201   -12336.875    51.970178    51.970178 
    5220    305.61187    39.463931   -12339.909   -28.177052   -28.177052 
    5230    293.96665    37.960173   -12338.402    37.340452    37.340452 
    5240    281.92094    36.404701   -12336.843    104.82682    104.82682 
    5250     303.4713    39.187518    -12339.63    74.557517    74.557517 
    5260     315.9196    40.794977   -12341.239    97.512108    97.512108 
    5270    305.10457    39.398423   -12339.839     174.2936     174.2936 
    5280    299.25524    38.643094   -12339.084    174.76683    174.76683 
    5290    300.05934    38.746928   -12339.188    146.78567    146.78567 
    5300    304.30809    39.295572   -12339.736    154.20027    154.20027 
    5310    314.59365    40.623756   -12341.067    138.20236    138.20236 
    5320    310.39418    40.081475   -12340.524    120.51351    120.51351 
    5330    297.25196    38.384409   -12338.824    120.51634    120.51634 
    5340    298.35809    38.527244   -12338.969    68.467265    68.467265 
    5350    294.56247    38.037112    -12338.48    16.838923    16.838923 
    5360    277.13995    35.787327   -12336.226    52.930819    52.930819 
    5370    283.07005    36.553086   -12336.993    69.161798    69.161798 
    5380    304.95548    39.379171   -12339.824    24.813804    24.813804 
    5390    298.50241    38.545881   -12338.988    75.048187    75.048187 
    5400    287.86795    37.172643    -12337.61    183.86071    183.86071 
    5410    312.14468    40.307519   -12340.749    167.34779    167.34779 
    5420    329.42154    42.538494   -12342.985    100.95988    100.95988 
    5430    298.18021    38.504275   -12338.944    150.35574    150.35574 
    5440    283.16647    36.565537   -12337.003    142.75529    142.75529 
    5450    308.45086    39.830532   -12340.275    10.964781    10.964781 
    5460    303.97801    39.252949   -12339.697    3.3655802    3.3655802 
    5470    273.31185    35.293001    -12335.73    117.55089    117.55089 
    5480    286.98928    37.059179   -12337.499    107.21381    107.21381 
    5490    313.27949    40.454058     -12340.9    61.183655    61.183655 
    5500    297.63661    38.434079   -12338.874    144.22942    144.22942 
    5510    299.03639    38.614833   -12339.053    152.93116    152.93116 
    5520     325.4188    42.021618   -12342.468    56.372564    56.372564 
    5530    300.69065     38.82845    -12339.27    103.24396    103.24396 
    5540      273.746    35.349064   -12335.783    179.22237    179.22237 
    5550    313.09919    40.430775   -12340.875    90.634111    90.634111 
    5560    325.50266    42.032446   -12342.479    86.375216    86.375216 
    5570    287.34516    37.105135   -12337.541    195.30582    195.30582 
    5580    294.06086    37.972339   -12338.412     141.2081     141.2081 
    5590    314.50746    40.612626   -12341.059    59.226449    59.226449 
    5600    290.14641    37.466862   -12337.904    140.45493    140.45493 
    5610    301.59058    38.944658   -12339.384    118.13136    118.13136 
    5620    330.72051    42.706232   -12343.156   0.59118713   0.59118713 
    5630    280.97961    36.283146   -12336.723    75.984562    75.984562 
    5640    250.65403    32.367176     -12332.8    117.43041    117.43041 
    5650    303.58029    39.201591   -12339.649   -34.795043   -34.795043 
    5660     304.4356    39.312039   -12339.758   -17.117033   -17.117033 
    5670    266.75084    34.445771   -12334.877     128.0567     128.0567 
    5680    316.68917    40.894353   -12341.338     36.14143     36.14143 
    5690    345.62306    44.630612   -12345.082   -1.0233389   -1.0233389 
    5700    279.20712    36.054263   -12336.489    233.23015    233.23015 
    5710    277.22469    35.798269   -12336.233    291.07869    291.07869 
    5720    338.20151     43.67226   -12344.123    148.13025    148.13025 
    5730    316.80788    40.909682   -12341.352    197.12588    197.12588 
    5740    285.23206    36.832269   -12337.266    220.17873    220.17873 
    5750    316.93577    40.926197   -12341.373   -10.843808   -10.843808 
    5760    295.83313    38.201194   -12338.646   -103.90442   -103.90442 
    5770    240.76935    31.090759   -12331.523    6.3244886    6.3244886 
    5780    275.15079    35.530465   -12335.971   0.31850454   0.31850454 
    5790    323.66799    41.795533   -12342.244     24.67562     24.67562 
    5800    307.45193     39.70154    -12340.14    222.61358    222.61358 
    5810    315.39462    40.727187   -12341.166    276.17039    276.17039 
    5820    344.27388    44.456391   -12344.905    160.72608    160.72608 
    5830    308.12203     39.78807    -12340.23    149.66534    149.66534 
    5840    269.30837    34.776028   -12335.211     127.8224     127.8224 
    5850    288.11576    37.204644   -12337.648   -24.109282   -24.109282 
    5860    294.09511    37.976761    -12338.42   -33.169252   -33.169252 
    5870    281.90939    36.403208    -12336.84    122.52033    122.52033 
    5880    307.88871    39.757942     -12340.2     162.6185     162.6185 
    5890    330.83851     42.72147   -12343.167    124.54171    124.54171 
    5900    308.97756    39.898545   -12340.339    143.75409    143.75409 
    5910    289.33886    37.362583   -12337.802     104.4521     104.4521 
    5920     283.9992    36.673068   -12337.116    25.582202    25.582202 
    5930    274.01355    35.383612   -12335.822    54.970889    54.970889 
    5940    292.23516    37.736585   -12338.176    84.716253    84.716253 
    5950    323.27507    41.744796   -12342.191    61.372403    61.372403 
    5960    310.97407    40.156356   -12340.598    130.63145    130.63145 
    5970    293.18826     37.85966   -12338.296    212.33225    212.33225 
    5980    319.22216     41.22144   -12341.665    131.45891    131.45891 
    5990    322.58644    41.655873   -12342.103    55.872372    55.872372 
    6000    271.77736    35.094851   -12335.532    114.33534    114.33534 
    6010    261.63225    33.784804   -12334.221    87.724755    87.724755 
    6020    302.39582     39.04864   -12339.494   -20.896671   -20.896671 
    6030    302.84648    39.106834    -12339.55    34.253458    34.253458 
    6040    287.42658    37.115648   -12337.552    122.85215    122.85215 
    6050     315.4055    40.728591   -12341.173    59.491926    59.491926 
    6060    316.48083    40.867449   -12341.313    90.176813    90.176813 
    6070    280.60901    36.235289   -12336.671    237.23705    237.23705 
    6080    299.70761    38.701509    -12339.14    195.75687    195.75687 
    6090    341.53889    44.103219   -12344.552    54.579254    54.579254 
    6100    310.08401    40.041423   -12340.483    97.562476    97.562476 
    6110    271.35968    35.040916   -12335.476    151.51133    151.51133 
    6120    292.73666    37.801344   -12338.244    78.323236    78.323236 
    6130    304.77647    39.356056     -12339.8    89.242799    89.242799 
    6140    293.74536    37.931599    -12338.37    160.87251    160.87251 
    6150    303.53618    39.195895   -12339.638    139.30984    139.30984 
    6160    310.96247    40.154859   -12340.598    107.10122    107.10122 
    6170    302.03757    39.002379   -12339.442    90.843741    90.843741 
    6180    304.98821    39.383397   -12339.826    2.5887678    2.5887678 
    6190    293.55142    37.906555   -12338.349   -33.715574   -33.715574 
    6200    271.61291    35.073616   -12335.511    21.146496    21.146496 
    6210    286.23864    36.962249   -12337.404    36.397484    36.397484 
    6220     300.4541    38.797903   -12339.242    108.26614    108.26614 
    6230    296.14862    38.241933   -12338.679     258.0289     258.0289 
    6240    328.73919    42.450383   -12342.893    229.71088    229.71088 
    6250    347.38701    44.858392   -12345.308    92.154913    92.154913 
    6260     288.9521     37.31264   -12337.752    91.518599    91.518599 
    6270    253.32911    32.712612   -12333.146    76.930477    76.930477 
    6280    289.83204    37.426268   -12337.871    -61.10447    -61.10447 
    6290    294.71945    38.057383   -12338.501   -56.982245   -56.982245 
    6300    276.29214    35.677849   -12336.113    87.028555    87.028555 
    6310    310.62568    40.111369   -12340.554    142.44907    142.44907 
    6320    330.38613    42.663053   -12343.109    199.22691    199.22691 
    6330     311.0165    40.161836     -12340.6    262.43536    262.43536 
    6340    319.94689    41.315026   -12341.757    158.84361    158.84361 
    6350    315.78792    40.777974   -12341.224    46.615776    46.615776 
    6360    270.10254     34.87858   -12335.314    92.843009    92.843009 
    6370    276.92445    35.759499   -12336.198    86.658268    86.658268 
    6380    315.04211    40.681666   -12341.129    18.402163    18.402163 
    6390     298.4794    38.542909   -12338.984    65.909601    65.909601 
    6400     283.1178    36.559252   -12336.996    102.46077    102.46077 
    6410     308.7027    39.863052   -12340.307    42.403186    42.403186 
    6420    306.83004    39.621235   -12340.064    68.032503    68.032503 
    6430     288.0122    37.191271   -12337.629    153.19479    153.19479 
    6440    302.88756    39.112138   -12339.555    135.60202    135.60202 
    6450     309.1207    39.917029    -12340.36    109.53293    109.53293 
    6460    297.14261    38.370288    -12338.81    122.25524    122.25524 
    6470    301.15642    38.888596   -12339.331    69.654054    69.654054 
    6480    295.55199     38.16489   -12338.608    4.5840022    4.5840022 
    6490    278.94503    36.020419   -12336.459    11.232751    11.232751 
    6500    291.92605     37.69667   -12338.138    67.052533    67.052533 
    6510    310.91755    40.149058   -12340.593    181.98894    181.98894 
    6520    311.30986    40.199717   -12340.639    302.93988    302.93988 
    6530    328.44546    42.412453   -12342.854    270.14695    270.14695 
    6540    336.21343    43.415537   -12343.862    133.07359    133.07359 
    6550    291.31996    37.618404   -12338.059    56.901687    56.901687 
    6560    257.76587    33.285535   -12333.722   -9.8395903   -9.8395903 
    6570    278.29349    35.936284   -12336.378   -107.76586   -107.76586 
    6580    294.47376    38.025658   -12338.471   -108.81851   -108.81851 
    6590    274.21579    35.409728   -12335.848    36.471057    36.471057 
    6600    280.02144    36.159416   -12336.596    159.29373    159.29373 
    6610    329.36177    42.530777   -12342.975    170.12509    170.12509 
    6620    345.17529    44.572791    -12345.02    173.86494    173.86494 
    6630    300.93131    38.859526   -12339.299    220.66173    220.66173 
    6640    277.12827    35.785818   -12336.221    206.48045    206.48045 
    6650    311.10373      40.1731   -12340.617    102.74243    102.74243 
    6660    324.82183     41.94453   -12342.391    61.503175    61.503175 
    6670    290.66714    37.534105   -12337.973    114.26167    114.26167 
    6680    281.16283    36.306805   -12336.745    91.242415    91.242415 
    6690    301.98841    38.996031   -12339.441   -3.4218332   -3.4218332 
    6700    291.92421    37.696431   -12338.138    18.185885    18.185885 
    6710     279.8192    36.133301   -12336.571    99.588733    99.588733 
    6720    306.51759    39.580888   -12340.024    83.936872    83.936872 
    6730    319.89432    41.308236   -12341.753    62.960034    62.960034 
    6740    296.85748     38.33347   -12338.773    136.14338    136.14338 
    6750    293.54643     37.90591   -12338.345    167.98834    167.98834 
    6760    310.98448    40.157701   -12340.601     118.4951     118.4951 
    6770    306.84263    39.622861   -12340.065    108.95308    108.95308 
    6780    293.22046    37.863817   -12338.303    137.30094    137.30094 
    6790    294.97842    38.090825   -12338.532    130.71921    130.71921 
    6800    297.09113     38.36364   -12338.805    128.15875    128.15875 
    6810    300.13597    38.756823   -12339.197    128.49935    128.49935 
    6820    313.86618    40.529817   -12340.973      66.8946      66.8946 
    6830    310.42188    40.085052   -12340.528     9.033952     9.033952 
    6840    286.03412    36.935839   -12337.376     17.04305     17.04305 
    6850     275.4481    35.568857   -12336.008    30.751696    30.751696 
    6860    287.50602    37.125906   -12337.568    16.889897    16.889897 
    6870    290.64991    37.531881   -12337.974    65.030531    65.030531 
    6880    288.48748    37.252643   -12337.692    152.44497    152.44497 
    6890    307.90955    39.760632   -12340.202    168.36345    168.36345 
    6900    331.29681     42.78065   -12343.225    156.75491    156.75491 
    6910    326.53378    42.165597   -12342.608    191.74598    191.74598 
    6920    309.06537    39.909884    -12340.35     188.8397     188.8397 
    6930     301.8216     38.97449   -12339.417    110.89805    110.89805 
    6940    289.35988    37.365297   -12337.807    74.348059    74.348059 
    6950    278.06057    35.906208   -12336.345    63.486998    63.486998 
    6960    288.74732    37.286197   -12337.727   -1.6069034   -1.6069034 
    6970    301.91896    38.987063   -12339.431   -37.644821   -37.644821 
    6980     292.7023    37.796907   -12338.238    34.392956    34.392956 
    6990    290.09732    37.460523     -12337.9    95.791788    95.791788 
    7000    307.03859    39.648164   -12340.091    104.32415    104.32415 
    7010    306.77131    39.613651   -12340.056    166.61311    166.61311 
    7020     295.9548    38.216905   -12338.656    220.65669    220.65669 
    7030    309.67548    39.988668   -12340.431    145.13163    145.13163 
    7040    315.87372    40.789052   -12341.234    57.027788    57.027788 
    7050    290.07473    37.457606   -12337.897    67.791557    67.791557 
    7060    285.26152    36.836073   -12337.275    71.606692    71.606692 
    7070    309.07498    39.911126   -12340.355    61.382143    61.382143 
    7080    312.60054    40.366385   -12340.809    122.09331    122.09331 
    7090    301.49525    38.932348   -12339.372    176.98687    176.98687 
    7100    306.35531    39.559933   -12340.003    137.06486    137.06486 
    7110    297.18787    38.376132   -12338.818    117.28342    117.28342 
    7120    281.43423    36.341851    -12336.78    117.70642    117.70642 
    7130    297.32343    38.393637   -12338.836     47.47742     47.47742 
    7140    308.00229    39.772608   -12340.217    10.684707    10.684707 
    7150    286.17158    36.953589   -12337.393    67.412758    67.412758 
    7160    278.79347    36.000847   -12336.439    87.565906    87.565906 
    7170    301.29177    38.906072   -12339.349    47.558214    47.558214 
    7180    312.95241    40.411822   -12340.854    61.529861    61.529861 
    7190    310.43858    40.087208   -12340.529    110.80779    110.80779 
    7200    302.25725    39.030747   -12339.472    156.33454    156.33454 
    7210    295.27993    38.129759   -12338.569    195.99904    195.99904 
    7220    307.82522    39.749743   -12340.191     179.2659     179.2659 
    7230    316.68656    40.894016   -12341.339    103.31046    103.31046 
    7240    289.24317    37.350226   -12337.791     32.69952     32.69952 
    7250    269.52214    34.803633   -12335.241   -37.155323   -37.155323 
    7260    286.66426     37.01721    -12337.46   -71.526901   -71.526901 
    7270    294.37051    38.012325   -12338.454    37.733643    37.733643 
    7280    299.77631     38.71038   -12339.149    196.37389    196.37389 
    7290    328.18466    42.378775   -12342.822    256.61927    256.61927 
    7300     336.6271    43.468955   -12343.913    256.92982    256.92982 
    7310    314.92702    40.666805   -12341.107    224.21427    224.21427 
    7320    299.71043    38.701872   -12339.143    124.38901    124.38901 
    7330    286.04957    36.937834    -12337.38    12.922416    12.922416 
    7340    269.83295    34.843768   -12335.283   -44.313051   -44.313051 
    7350     278.4541    35.957024   -12336.397    -28.87496    -28.87496 
    7360    299.81177     38.71496   -12339.158    69.522156    69.522156 
    7370    310.65569    40.115245   -12340.556    162.13641    162.13641 
    7380    319.55177    41.264003   -12341.707     144.7417     144.7417 
    7390    305.84461    39.493985   -12339.937    113.85298    113.85298 
    7400    278.22461    35.927391   -12336.364    118.63103    118.63103 
    7410    293.98583    37.962651   -12338.403    65.031369    65.031369 
    7420    318.72588    41.157355   -12341.604     31.13306     31.13306 
    7430     295.6335    38.175415   -12338.616    91.610972    91.610972 
    7440    283.01897     36.54649   -12336.984     84.38004     84.38004 
    7450    303.58716    39.202478   -12339.647    23.756864    23.756864 
    7460    295.56802     38.16696   -12338.609    90.593714    90.593714 
    7470    284.13067    36.690045   -12337.127    156.86889    156.86889 
    7480    309.69506    39.991197   -12340.434    102.50523    102.50523 
    7490    318.14156    41.081902   -12341.526    105.26832    105.26832 
    7500    299.87644     38.72331   -12339.162    179.68758    179.68758 
    7510    307.68382    39.731484   -12340.174    149.44033    149.44033 
    7520    309.20098    39.927396   -12340.372    90.803623    90.803623 
    7530    279.72422    36.121036    -12336.56    76.835495    76.835495 
    7540     276.4222    35.694643   -12336.134    15.065059    15.065059 
    7550     299.5921    38.686592   -12339.129   -4.9159832   -4.9159832 
    7560    309.78641    40.002993   -12340.445    104.28779    104.28779 
    7570    313.08481    40.428919    -12340.87    190.87405    190.87405 
    7580    312.76198    40.387232    -12340.83    184.61714    184.61714 
    7590    301.94383    38.990273    -12339.43    187.71981    187.71981 
    7600    307.37958    39.692197   -12340.133    163.98342    163.98342 
    7610    311.74948    40.256486   -12340.701    96.848334    96.848334 
    7620    283.53576    36.613224   -12337.053     61.37974     61.37974 
    7630      270.397    34.916604   -12335.354    4.2747788    4.2747788 
    7640    293.05643    37.842636   -12338.286   -68.604742   -68.604742 
    7650    301.45596    38.927275    -12339.37   -12.839598   -12.839598 
    7660    294.01023    37.965801   -12338.405    131.93072    131.93072 
    7670    307.57465    39.717387    -12340.16    168.51761    168.51761 
    7680    310.57844    40.105269   -12340.549    153.39471    153.39471 
    7690    291.25881    37.610508   -12338.048    209.16829    209.16829 
    7700    305.70911    39.476487   -12339.916    211.72479    211.72479 
    7710    335.58918    43.334927   -12343.781    114.62117    114.62117 
    7720    315.37514    40.724671   -12341.169     61.61627     61.61627 
    7730    269.18612    34.760242   -12335.197    78.904005    78.904005 
    7740    268.95859    34.730861   -12335.169    50.611216    50.611216 
    7750    303.19625       39.152   -12339.597   -5.8313182   -5.8313182 
    7760    301.84521     38.97754   -12339.421     32.12209     32.12209 
    7770      280.766    36.255562   -12336.693    88.618701    88.618701 
    7780    292.15286    37.725958   -12338.167    61.225144    61.225144 
    7790    309.16797    39.923134   -12340.367    56.595191    56.595191 
    7800     303.0319    39.130777   -12339.571    132.77035    132.77035 
    7810    307.68113    39.731136   -12340.172    164.45309    164.45309 
    7820    317.63164    41.016055   -12341.461    148.79083    148.79083 
    7830    294.48872    38.027589   -12338.467    195.93449    195.93449 
    7840    290.07853    37.458097   -12337.895    206.75625    206.75625 
    7850    329.08475    42.495004   -12342.941    126.80611    126.80611 
    7860    323.46669     41.76954   -12342.215    125.81407    125.81407 
    7870    277.27238    35.804427    -12336.24     151.4903     151.4903 
    7880    284.13504    36.690609   -12337.131    23.341901    23.341901 
    7890    303.96663     39.25148   -12339.698   -65.305212   -65.305212 
    7900    277.04692    35.775314   -12336.214    49.617518    49.617518 
    7910    279.28738    36.064626   -12336.501    131.12388    131.12388 
    7920    323.65986    41.794485   -12342.241    103.52897    103.52897 
    7930    322.95691    41.703711   -12342.147    157.58205    157.58205 
    7940    301.60071    38.945966   -12339.384    203.13903    203.13903 
    7950    307.39158    39.693747   -12340.137    108.79071    108.79071 
    7960    294.24087    37.995584   -12338.438    22.650809    22.650809 
    7970    271.40678    35.046997   -12335.485    -4.891908    -4.891908 
    7980    281.68837    36.374669   -12336.816   -17.723223   -17.723223 
    7990    296.25229     38.25532   -12338.697    54.810938    54.810938 
    8000    310.34123    40.074638   -12340.514     164.3265     164.3265 
    8010    334.37149    43.177687   -12343.623       183.78       183.78 
    8020    315.67498    40.763389   -12341.207    180.42538    180.42538 
    8030    272.47118    35.184445    -12335.62    157.82129    157.82129 
    8040    284.15566    36.693272   -12337.134     21.04883     21.04883 
    8050    304.92768    39.375581   -12339.822   -72.339244   -72.339244 
    8060    280.94566    36.278762   -12336.717    6.5040863    6.5040863 
    8070    283.99752    36.672851   -12337.111     84.78582     84.78582 
    8080    320.86137    41.433113   -12341.879    113.28499    113.28499 
    8090    319.38473    41.242432   -12341.685    202.28447    202.28447 
    8100    302.25875     39.03094    -12339.47     265.4809     265.4809 
    8110    307.54111    39.713055   -12340.155    202.22022    202.22022 
    8120    306.67196    39.600821   -12340.043    97.073471    97.073471 
    8130    299.66001    38.695363   -12339.136    25.952581    25.952581 
    8140     295.6214    38.173853   -12338.616    23.000023    23.000023 
    8150    285.87639    36.915471   -12337.355    63.325721    63.325721 
    8160    295.48798    38.156624   -12338.597    46.222978    46.222978 
    8170    310.00627    40.031383   -12340.476    46.432573    46.432573 
    8180    291.32311    37.618811   -12338.058    157.93438    157.93438 
    8190    291.78922       37.679   -12338.117    186.27115    186.27115 
    8200    321.39926     41.50257   -12341.949    84.398797    84.398797 
    8210    302.39638    39.048712   -12339.491    75.770417    75.770417 
    8220     276.3714    35.688084   -12336.123    86.506099    86.506099 
    8230    307.29105    39.680765   -12340.126   -22.487742   -22.487742 
    8240    306.54035    39.583827    -12340.03   -25.779364   -25.779364 
    8250    262.80266     33.93594   -12334.371    108.39765    108.39765 
    8260    283.02047    36.546684   -12336.986    133.54977    133.54977 
    8270    327.77165    42.325443   -12342.773    134.56397    134.56397 
    8280    319.06433    41.201059   -12341.641    229.93625    229.93625 
    8290    316.94171    40.926964   -12341.367    216.94899    216.94899 
    8300    323.60612    41.787545   -12342.234    119.33692    119.33692 
    8310    288.88427    37.303881   -12337.743    113.72314    113.72314 
    8320    277.29157    35.806906   -12336.244    70.564724    70.564724 
    8330    302.22342    39.026378   -12339.473   -29.332798   -29.332798 
    8340    284.26296    36.707127   -12337.148    14.360091    14.360091 
    8350    268.68617    34.695683   -12335.132    69.107392    69.107392 
    8360    301.79856    38.971515   -12339.416    7.6354813    7.6354813 
    8370     310.2448    40.062185   -12340.505    42.842482    42.842482 
    8380    300.16502    38.760575   -12339.198    154.55218    154.55218 
    8390    318.87149    41.176158    -12341.62    157.04461    157.04461 
    8400    315.81114    40.780972   -12341.225    156.75975    156.75975 
    8410    287.17355    37.082974    -12337.52    210.76126    210.76126 
    8420    300.23879    38.770101   -12339.212    156.63523    156.63523 
    8430    312.39165     40.33941   -12340.785    86.079325    86.079325 
    8440    287.46311    37.120366   -12337.558    113.05754    113.05754 
    8450    293.24725    37.867276   -12338.307    71.327166    71.327166 
    8460    314.48776    40.610083   -12341.056   -10.629818   -10.629818 
    8470    293.08996    37.846966   -12338.287    58.454924    58.454924 
    8480    281.18661    36.309875   -12336.747     156.1213     156.1213 
    8490    307.95104    39.765991    -12340.21    137.10697    137.10697 
    8500    314.99229    40.675233   -12341.119     127.3574     127.3574 
    8510    297.38004    38.400948    -12338.84    166.42632    166.42632 
    8520    300.69716    38.829291   -12339.271    111.34925    111.34925 
    8530    305.01895    39.387367   -12339.831    14.624507    14.624507 
    8540    287.46081    37.120069    -12337.56    16.781353    16.781353 
    8550    278.79337    36.000834    -12336.44    62.615419    62.615419 
    8560    294.20697    37.991206   -12338.432    70.565857    70.565857 
    8570       313.32    40.459288   -12340.903     92.34099     92.34099 
    8580    312.52062    40.356065   -12340.798      168.493      168.493 
    8590    305.66221    39.470432   -12339.911    193.63136    193.63136 
    8600    308.54096    39.842167   -12340.285    124.92398    124.92398 
    8610    298.10722    38.494849   -12338.938    81.876124    81.876124 
    8620    276.74791    35.736703   -12336.175    83.447755    83.447755 
    8630    284.57424    36.747323   -12337.188     41.67794     41.67794 
    8640    305.59289    39.461481   -12339.905    27.340195    27.340195 
    8650    307.61986    39.723224   -12340.165    85.236105    85.236105 
    8660     304.3101    39.295833   -12339.737    110.13233    110.13233 
    8670    297.59826    38.429127   -12338.871    107.57957    107.57957 
    8680    289.10978    37.333001   -12337.772    133.27113    133.27113 
    8690    305.35883    39.431256   -12339.872    125.57547    125.57547 
    8700    322.05692    41.587495   -12342.033    107.21685    107.21685 
    8710    300.82725    38.846089   -12339.286    149.76317    149.76317 
    8720    290.57575    37.522303    -12337.96    136.11609    136.11609 
    8730    310.77406    40.130529   -12340.575    51.923077    51.923077 
    8740    302.68734    39.086284   -12339.529    63.990566    63.990566 
    8750    281.64288    36.368794   -12336.807    101.30876    101.30876 
    8760    291.62396     37.65766     -12338.1    35.689506    35.689506 
    8770    294.47477    38.025788   -12338.469    23.850422    23.850422 
    8780    285.41991    36.856526   -12337.295    122.08178    122.08178 
    8790    307.55005     39.71421   -12340.156     152.3159     152.3159 
    8800    328.52332    42.422507   -12342.868    116.05385    116.05385 
    8810    311.35042    40.204955   -12340.646    115.96489    115.96489 
    8820    292.41373    37.759644     -12338.2    107.39193    107.39193 
    8830    284.11556    36.688094   -12337.129    102.58303    102.58303 
    8840    281.37178    36.333787   -12336.772    140.20994    140.20994 
    8850    304.22894    39.285353   -12339.727    124.08881    124.08881 
    8860    317.50604    40.999836   -12341.445    76.914721    76.914721 
    8870    295.11691    38.108708   -12338.547    107.40664    107.40664 
    8880    298.10118    38.494069   -12338.933    134.05354    134.05354 
    8890    323.25108    41.741698   -12342.188    108.83168    108.83168 
    8900    305.62817    39.466036   -12339.909    117.60421    117.60421 
    8910    276.64209    35.723038    -12336.16    121.83441    121.83441 
    8920    289.14642    37.337733    -12337.78    47.300916    47.300916 
    8930    299.71179    38.702049   -12339.145    15.814243    15.814243 
    8940    294.40057    38.016207   -12338.455     58.94311     58.94311 
    8950    306.93831    39.635216   -12340.078    56.160271    56.160271 
    8960    301.99882    38.997375   -12339.441    71.873279    71.873279 
    8970    278.56089    35.970815   -12336.408    148.17756    148.17756 
    8980    295.74354    38.189624    -12338.63    158.38783    158.38783 
    8990    323.65811    41.794259   -12342.241    115.89505    115.89505 
    9000    303.67731     39.21412   -12339.655    129.37955    129.37955 
    9010     288.5762      37.2641   -12337.702    118.38623    118.38623 
    9020    305.64942     39.46878   -12339.912    60.085999    60.085999 
    9030    304.87621    39.368935   -12339.812    71.749995    71.749995 
    9040    291.07317    37.586536   -12338.025     133.1402     133.1402 
    9050    300.29438    38.777278   -12339.218     146.8537     146.8537 
    9060    313.19117    40.442653   -12340.886    141.87598    141.87598 
    9070    308.12495    39.788448    -12340.23    164.33836    164.33836 
    9080    303.21972     39.15503   -12339.596    171.40621    171.40621 
    9090    303.46486    39.186686   -12339.628    144.04157    144.04157 
    9100     299.9826    38.737018   -12339.179    88.515743    88.515743 
    9110    288.82495    37.296222   -12337.737    21.598304    21.598304 
    9120    281.24154    36.316969   -12336.757   -24.494011   -24.494011 
    9130    286.72724    37.025343   -12337.466   -4.6631016   -4.6631016 
    9140    299.15924    38.630697   -12339.073    74.746258    74.746258 
    9150    305.56781    39.458242     -12339.9    164.59126    164.59126 
    9160    311.21526    40.187502   -12340.628     199.3435     199.3435 
    9170    320.19084    41.346526    -12341.79    152.78835    152.78835 
    9180    308.11984    39.787788   -12340.231    85.818752    85.818752 
    9190    276.56341    35.712878   -12336.152     35.93191     35.93191 
    9200    267.51943    34.545021   -12334.984   -20.513527   -20.513527 
    9210    285.59051    36.878555    -12337.32   -31.636224   -31.636224 
    9220    303.88776    39.241295   -12339.683     68.61973     68.61973 
    9230    320.91585    41.440147   -12341.882    197.35493    197.35493 
    9240    332.52252    42.938928   -12343.383    251.00007    251.00007 
    9250    317.91768    41.052992   -12341.495    238.66808    238.66808 
    9260    295.60919    38.172277   -12338.612    155.35558    155.35558 
    9270    288.52784    37.257856     -12337.7    9.9899757    9.9899757 
    9280    278.14547     35.91717   -12336.359   -75.843049   -75.843049 
    9290    269.23058    34.765983   -12335.205   -58.646524   -58.646524 
    9300     287.4273    37.115742   -12337.557   -6.5113732   -6.5113732 
    9310    310.98069    40.157212   -12340.601    88.014686    88.014686 
    9320    313.76148    40.516298   -12340.957    231.29091    231.29091 
    9330    321.19226    41.475841   -12341.917    299.81969    299.81969 
    9340    328.53133    42.423542   -12342.868    274.77014    274.77014 
    9350    307.70118    39.733726   -12340.175    239.48541    239.48541 
    9360    291.76924     37.67642   -12338.115    140.29871    140.29871 
    9370     302.6104    39.076348    -12339.52   -36.966624   -36.966624 
    9380    290.85456    37.558307   -12338.002   -107.50802   -107.50802 
    9390     261.9477    33.825538   -12334.262   -40.038882   -40.038882 
    9400    276.23084    35.669933    -12336.11    1.9933694    1.9933694 
    9410    305.65446    39.469431   -12339.914    48.917399    48.917399 
    9420     302.9662    39.122293   -12339.562    181.89365    181.89365 
    9430      310.721    40.123678   -12340.563    229.46318    229.46318 
    9440    330.13907     42.63115   -12343.077    148.00841    148.00841 
    9450    303.05677    39.133989   -12339.576    131.89115    131.89115 
    9460    274.24242    35.413166   -12335.849    141.82487    141.82487 
    9470    302.99104    39.125501   -12339.568    54.076635    54.076635 
    9480    319.35134    41.238122   -12341.685    44.123632    44.123632 
    9490    286.21818    36.959607   -12337.397     179.4634     179.4634 
    9500    286.55024    37.002486    -12337.44    185.06948    185.06948 
    9510    318.97355    41.189337   -12341.636    39.367789    39.367789 
    9520    303.46538    39.186753   -12339.629   -2.5819706   -2.5819706 
    9530     273.4123    35.305973   -12335.743     29.01245     29.01245 
    9540    287.81889    37.166308   -12337.608     6.076744     6.076744 
    9550    302.69513     39.08729   -12339.531    42.191432    42.191432 
    9560    292.11709    37.721338    -12338.16    171.32021    171.32021 
    9570    302.86081    39.108684   -12339.549    222.20527    222.20527 
    9580    325.25895    42.000977   -12342.446    188.52691    188.52691 
    9590    315.03306    40.680498   -12341.123    162.03193    162.03193 
    9600    292.45526    37.765006   -12338.204    103.49054    103.49054 
    9610    291.86841    37.689226    -12338.13    20.734907    20.734907 
    9620    302.69734    39.087575    -12339.53    14.378519    14.378519 
    9630    303.68165     39.21468   -12339.657    80.183287    80.183287 
    9640    297.05289    38.358702     -12338.8    140.11631    140.11631 
    9650     294.9102    38.082015   -12338.522    181.21495    181.21495 
    9660    303.11845    39.141953   -12339.583    189.19492    189.19492 
    9670    313.34464     40.46247   -12340.905    142.20874    142.20874 
    9680    311.18868    40.184069   -12340.626    96.573566    96.573566 
    9690    299.96259    38.734434   -12339.176    71.233001    71.233001 
    9700    287.00037    37.060612   -12337.502    27.490626    27.490626 
    9710    279.59771      36.1047   -12336.545   -18.014866   -18.014866 
    9720    281.15569    36.305883   -12336.747   -3.8321581   -3.8321581 
    9730    289.69229    37.408222   -12337.849    41.384965    41.384965 
    9740    305.13335     39.40214   -12339.845    52.275892    52.275892 
    9750    308.03167    39.776403   -12340.219    100.06581    100.06581 
    9760    295.11569     38.10855   -12338.548    200.97173    200.97173 
    9770    304.10492    39.269337   -12339.709    210.65167    210.65167 
    9780    328.32799    42.397283   -12342.843    140.90758    140.90758 
    9790    312.24954    40.321059   -12340.764    144.14017    144.14017 
    9800    283.13657    36.561676   -12336.999    127.76646    127.76646 
    9810    294.44087     38.02141   -12338.463    2.1900706    2.1900706 
    9820    300.34913    38.784349   -12339.229   -27.881607   -27.881607 
    9830    276.38611    35.689983   -12336.127    88.044725    88.044725 
    9840    290.00798    37.448987   -12337.889    116.31231    116.31231 
    9850     320.6427    41.404876   -12341.851    92.505253    92.505253 
    9860    305.80477     39.48884   -12339.929    162.09008    162.09008 
    9870    297.36701    38.399265   -12338.837    179.67448    179.67448 
    9880    318.24425    41.095161    -12341.54    113.16454    113.16454 
    9890    306.88354    39.628143   -12340.071    125.40201    125.40201 
    9900    282.45352    36.473473    -12336.91    143.56202    143.56202 
    9910    305.34894    39.429979   -12339.873      36.8221      36.8221 
    9920    312.79236    40.391154   -12340.837    17.761907    17.761907 
    9930    279.49558    36.091511   -12336.529     125.2163     125.2163 
    9940    285.12377    36.818285   -12337.258    98.076661    98.076661 
    9950    309.36529    39.948614   -12340.394    14.133589    14.133589 
    9960    295.08799    38.104974   -12338.545    84.290741    84.290741 
    9970    294.57619    38.038884   -12338.477    163.73062    163.73062 
    9980    320.35494    41.367717   -12341.813    158.21257    158.21257 
    9990    307.56543    39.716196   -12340.158    185.56097    185.56097 
   10000    287.42868    37.115919   -12337.553     143.3402     143.3402 
Loop time of 12.4473 on 1 procs for 10000 steps with 1000 atoms

Performance: 34.706 ns/day, 0.692 hours/ns, 803.385 timesteps/s
99.8% CPU use with 1 MPI tasks x no OpenMP threads

MPI task timing breakdown:
Section |  min time  |  avg time  |  max time  |%varavg| %total
---------------------------------------------------------------
Pair    | 10.205     | 10.205     | 10.205     |   0.0 | 81.99
Neigh   | 1.3972     | 1.3972     | 1.3972     |   0.0 | 11.23
Comm    | 0.10671    | 0.10671    | 0.10671    |   0.0 |  0.86
Output  | 0.62001    | 0.62001    | 0.62001    |   0.0 |  4.98
Modify  | 0.086508   | 0.086508   | 0.086508   |   0.0 |  0.69
Other   |            | 0.03167    |            |       |  0.25

Nlocal:    1000 ave 1000 max 1000 min
Histogram: 1 0 0 0 0 0 0 0 0 0
Nghost:    2055 ave 2055 max 2055 min
Histogram: 1 0 0 0 0 0 0 0 0 0
Neighs:    0 ave 0 max 0 min
Histogram: 1 0 0 0 0 0 0 0 0 0
FullNghs:  33674 ave 33674 max 33674 min
Histogram: 1 0 0 0 0 0 0 0 0 0

Total # of neighbors = 33674
Ave neighs/atom = 33.674
Neighbor list builds = 1000
Dangerous builds not checked

Total wall time: 0:00:12
