
# Define the lattice
variable	lattice_constant equal 6.20
lattice		diamond ${lattice_constant}
lattice		diamond 6.2
Lattice spacing in x,y,z = 6.2 6.2 6.2

# Define region
# multiples of lattice spacing
region 		simbox block 0 5 0 5 0 5

# Create Atoms
create_box 	1 simbox
Created orthogonal box = (0 0 0) to (31 31 31)
  1 by 1 by 1 MPI processor grid
create_atoms 	1 box
Created 1000 atoms
  Time spent = 0.000213861 secs
mass		1 18.015

velocity	all create 600.0 97287

# Define Interatomic Potential
pair_style	sw
pair_coeff	* * mW.sw mW
Reading potential file mW.sw with DATE: 2019-02-27

neighbor 	2.0 bin
neigh_modify	delay 10 check no

# Pressure computations
compute		total_press all pressure thermo_temp
compute		peratom all stress/atom NULL
compute		p all reduce sum c_peratom[1] c_peratom[2] c_peratom[3]
variable	press equal -(c_p[1]+c_p[2]+c_p[3])/(3*vol)

# Density computations
variable	total_mass equal mass(all)
variable	v equal vol
print 		${total_mass}
print 		18014.9999999997
18014.9999999997
print		$v
print		29791
29791

variable 	density equal v_total_mass/(v_v*18.015)
print 		${density}
print 		0.033567184720217
0.033567184720217


# Run equilibration
thermo_style	custom step temp ke pe c_total_press v_press
thermo		10
dump		1 all atom 10 ${simname}.dump
dump		1 all atom 10 mW_liquid_6.20.dump

fix 		1 all nve
#temp 300.0 300.0 100.0 iso 0.0 0.0 1000.0
timestep	0.0005
run		10000
Neighbor list info ...
  update every 1 steps, delay 10 steps, check no
  max neighbors/atom: 2000, page size: 100000
  master list distance cutoff = 6.3065
  ghost atom cutoff = 6.3065
  binsize = 3.15325, bins = 10 10 10
  1 neighbor lists, perpetual/occasional/extra = 1 0 0
  (1) pair sw, perpetual
      attributes: full, newton on
      pair build: full/bin/atomonly
      stencil: full/bin/3d
      bin: standard
Per MPI rank memory allocation (min/avg/max) = 4.438 | 4.438 | 4.438 Mbytes
Step Temp KinEng PotEng c_total_press v_press 
       0          600    77.478531   -12377.985    4543.2387    4543.2387 
      10    356.70675    46.061858   -12346.509    4919.1965    4919.1965 
      20    173.74687    22.436087   -12322.856    4808.9932    4808.9932 
      30    325.40715    42.020113     -12342.5     3870.964     3870.964 
      40    269.75717    34.833982   -12335.298    3772.3215    3772.3215 
      50    140.17286    18.100646   -12318.524    4154.5999    4154.5999 
      60    300.11425    38.754019   -12339.221    3936.9636    3936.9636 
      70    360.96677    46.611959   -12347.087    4075.2905    4075.2905 
      80    247.79513    31.998004   -12332.429    4694.3435    4694.3435 
      90    342.73075    44.257125   -12344.716    4602.4517    4602.4517 
     100    407.88888    52.671052   -12353.151    4333.0693    4333.0693 
     110    251.09686     32.42436   -12332.862    4533.1196    4533.1196 
     120    249.10427    32.167055   -12332.612    4365.2167    4365.2167 
     130    351.44768     45.38275   -12345.859    4022.0673    4022.0673 
     140    273.60804    35.331249    -12335.78    4284.0792    4284.0792 
     150    249.83371    32.261248   -12332.703    4425.9722    4425.9722 
     160    348.59256    45.014066   -12345.486      4141.98      4141.98 
     170    301.19487     38.89356    -12339.35    4264.4985    4264.4985 
     180    240.70958    31.083041   -12331.521    4535.3207    4535.3207 
     190    337.67404    43.604147   -12344.069    4332.3805    4332.3805 
     200    353.23845    45.613994   -12346.081    4236.0387    4236.0387 
     210    260.29542    33.612178   -12334.055    4452.7958    4452.7958 
     220     280.7317    36.251133   -12336.704    4377.4997    4377.4997 
     230    330.08378    42.624011    -12343.09    4195.0857    4195.0857 
     240    286.13226    36.948512   -12337.399     4318.563     4318.563 
     250    278.93836    36.019557    -12336.47    4368.1989    4368.1989 
     260    317.77211    41.034194   -12341.497    4241.9766    4241.9766 
     270    294.61072    38.043343   -12338.497     4331.872     4331.872 
     280    284.29048    36.710681   -12337.159    4457.5931    4457.5931 
     290    335.54869    43.329699   -12343.791    4342.5084    4342.5084 
     300    331.74577    42.838625   -12343.299     4307.891     4307.891 
     310     276.1089    35.654186   -12336.103    4444.7239    4444.7239 
     320    283.04054    36.549275   -12337.002    4418.8284    4418.8284 
     330    318.72346    41.157042   -12341.619    4278.5042    4278.5042 
     340    296.90764    38.339946   -12338.796    4271.9909    4271.9909 
     350    270.90392    34.982063   -12335.433    4251.9206    4251.9206 
     360    289.24603    37.350596   -12337.807    4128.9955    4128.9955 
     370    297.30953    38.391843   -12338.849    4146.5985    4146.5985 
     380    285.58587    36.877956   -12337.331    4303.3259    4303.3259 
     390    299.32014    38.651475   -12339.106    4379.6785    4379.6785 
     400    323.17536     41.73192    -12342.19    4433.4209    4433.4209 
     410    325.91846    42.086139   -12342.542    4551.2163    4551.2163 
     420    325.13299     41.98471   -12342.441    4556.8331    4556.8331 
     430    316.08785    40.816704   -12341.274    4419.0223    4419.0223 
     440    289.98656     37.44622   -12337.901    4289.7998    4289.7998 
     450    272.47662    35.185146   -12335.639    4192.9201    4192.9201 
     460    268.45711    34.666104   -12335.121    4132.2872    4132.2872 
     470    272.07341    35.133081   -12335.586    4164.3863    4164.3863 
     480    297.47437    38.413128   -12338.869    4227.1284    4227.1284 
     490    314.52558    40.614967   -12341.074    4299.3358    4299.3358 
     500    300.15846    38.759727   -12339.213      4434.07      4434.07 
     510    308.15216    39.791962   -12340.245    4517.4326    4517.4326 
     520    332.97059    42.996787   -12343.457     4465.362     4465.362 
     530     312.6877    40.377639   -12340.834    4388.0523    4388.0523 
     540    277.45417    35.827903   -12336.279    4339.9884    4339.9884 
     550    282.26097    36.448608   -12336.903    4280.4122    4280.4122 
     560    301.08127    38.878891   -12339.336    4244.6423    4244.6423 
     570    305.29321    39.422782   -12339.878    4265.9237    4265.9237 
     580    303.75348    39.223956    -12339.68    4297.7596    4297.7596 
     590    298.42261    38.535576   -12338.991    4315.0091    4315.0091 
     600    294.45172    38.022811   -12338.477    4348.1662    4348.1662 
     610    302.06982    39.006543   -12339.462    4407.0891    4407.0891 
     620      309.741     39.99713   -12340.453    4439.5813    4439.5813 
     630     312.0274    40.292374   -12340.748    4395.0772    4395.0772 
     640      310.953    40.153636   -12340.611    4327.2895    4327.2895 
     650    292.38814    37.756339   -12338.211    4322.6089    4322.6089 
     660    280.84037    36.265166   -12336.717    4307.2699    4307.2699 
     670    301.62934    38.949663   -12339.407    4225.8744    4225.8744 
     680    304.02562    39.259097   -12339.717    4223.5465    4223.5465 
     690    278.92099    36.017315    -12336.47    4307.5564    4307.5564 
     700    285.23921    36.833191   -12337.287     4337.146     4337.146 
     710     310.3693    40.078263   -12340.537    4340.1364    4340.1364 
     720    303.43952    39.183414   -12339.639    4379.8013    4379.8013 
     730     297.3694    38.399573   -12338.853    4356.2212    4356.2212 
     740    310.76168     40.12893   -12340.587    4292.6685    4292.6685 
     750     301.6609    38.953739    -12339.41    4321.4293    4321.4293 
     760    287.29429    37.098566   -12337.551    4364.9033    4364.9033 
     770    301.66037     38.95367    -12339.41    4327.6923    4327.6923 
     780    307.15446    39.663127    -12340.12    4313.8462    4313.8462 
     790    296.76035    38.320927   -12338.774    4331.1463    4331.1463 
     800      305.867    39.496877   -12339.954    4306.2616    4306.2616 
     810    302.81285    39.102491    -12339.56    4355.9523    4355.9523 
     820    282.66426    36.500686   -12336.951    4472.0348    4472.0348 
     830    308.42504    39.827198   -12340.282    4447.5366    4447.5366 
     840    338.35032    43.691476   -12344.154    4353.2252    4353.2252 
     850    300.34928    38.784368   -12339.239    4348.9146    4348.9146 
     860    272.04368    35.129241   -12335.579    4282.1782    4282.1782 
     870    293.72622    37.929126   -12338.387    4150.0266    4150.0266 
     880    292.61514    37.785652   -12338.242    4163.1556    4163.1556 
     890    279.54023    36.097277   -12336.549    4252.7119    4252.7119 
     900    298.90136    38.597397   -12339.055    4292.1675    4292.1675 
     910     299.5541    38.681686   -12339.138    4405.3548    4405.3548 
     920    292.93627     37.82712   -12338.277    4505.9257    4505.9257 
     930    334.40735    43.182317   -12343.642    4408.5769    4408.5769 
     940    337.32679    43.559306   -12344.021    4349.4152    4349.4152 
     950    278.97645    36.024476   -12336.473    4418.3264    4418.3264 
     960    281.37316    36.333965   -12336.786     4350.746     4350.746 
     970    318.24273    41.094966   -12341.557    4242.2135    4242.2135 
     980    295.25791    38.126915   -12338.581    4301.1681    4301.1681 
     990    279.65939    36.112665   -12336.564    4306.8647    4306.8647 
    1000    298.83532     38.58887   -12339.048    4210.5777    4210.5777 
    1010    285.49929    36.866775   -12337.321    4249.4906    4249.4906 
    1020    282.34464    36.459413    -12336.91    4337.4271    4337.4271 
    1030     321.5748    41.525239   -12341.985    4344.7322    4344.7322 
    1040     321.3436    41.495384   -12341.953    4420.2408    4420.2408 
    1050     301.8404    38.976918   -12339.429    4488.9061    4488.9061 
    1060    313.06626    40.426523   -12340.885    4418.3846    4418.3846 
    1070    300.64608    38.822694   -12339.279    4369.1391    4369.1391 
    1080    286.02437     36.93458   -12337.385     4324.681     4324.681 
    1090    313.18306    40.441605   -12340.901    4170.2042    4170.2042 
    1100    299.52085    38.677393   -12339.138    4106.4836    4106.4836 
    1110    240.01848    30.993798    -12331.44    4238.6614    4238.6614 
    1120    266.35841    34.395097   -12334.846    4307.0682    4307.0682 
    1130    337.81013    43.621721   -12344.086    4324.0183    4324.0183 
    1140    330.81362    42.718256   -12343.175    4451.6176    4451.6176 
    1150    305.23329    39.415045   -12339.867    4494.5324    4494.5324 
    1160    311.20217    40.185812   -12340.644    4380.8134    4380.8134 
    1170    297.69891    38.442124   -12338.898    4317.1108    4317.1108 
    1180    281.71585    36.378217   -12336.831    4307.4541    4307.4541 
    1190    292.35445    37.751989   -12338.209    4258.6203    4258.6203 
    1200    290.76817    37.547151   -12338.003    4261.8767    4261.8767 
    1210    286.66496      37.0173   -12337.469    4346.7156    4346.7156 
    1220    317.84087    41.043073   -12341.499    4418.9995    4418.9995 
    1230    344.40213    44.472951   -12344.933    4455.7722    4455.7722 
    1240    322.18077    41.603488    -12342.06    4466.3388    4466.3388 
    1250    286.19773    36.956967    -12337.41     4403.642     4403.642 
    1260    279.80347     36.13127   -12336.585    4272.1272    4272.1272 
    1270    293.26233    37.869224   -12338.326    4168.5192    4168.5192 
    1280    292.71636    37.798723   -12338.256    4162.3271    4162.3271 
    1290    274.07715    35.391824   -12335.845    4216.0012    4216.0012 
    1300    277.25652     35.80238   -12336.255    4245.1423    4245.1423 
    1310    307.29117     39.68078   -12340.138    4283.3217    4283.3217 
    1320    319.75179    41.289831   -12341.748    4394.4256    4394.4256 
    1330    305.56079    39.457335   -12339.911      4493.19      4493.19 
    1340     304.7775    39.356188   -12339.811    4442.4849    4442.4849 
    1350    310.31846    40.071698    -12340.53    4322.7565    4322.7565 
    1360     289.8219    37.424959   -12337.879    4301.5417    4301.5417 
    1370    281.62679    36.366717   -12336.819    4324.4977    4324.4977 
    1380    309.46017    39.960865   -12340.417    4318.1115    4318.1115 
    1390     327.2054    42.252323   -12342.712     4334.927     4334.927 
    1400    306.22091    39.542577   -12339.997    4405.2202    4405.2202 
    1410    291.46328    37.636912    -12338.09    4422.6973    4422.6973 
    1420    302.70873    39.089046   -12339.547    4326.2936    4326.2936 
    1430    293.43123    37.891034   -12338.349    4220.0307    4220.0307 
    1440    260.65389    33.658467   -12334.111    4193.7292    4193.7292 
    1450    262.55619    33.904113   -12334.355    4222.0818    4222.0818 
    1460     311.1576    40.180056   -12340.637    4269.3255    4269.3255 
    1470     345.0636    44.558369   -12345.019    4368.4595    4368.4595 
    1480    326.68807    42.185519   -12342.641    4510.5467    4510.5467 
    1490    301.41184    38.921578   -12339.374    4538.1442    4538.1442 
    1500    305.25341    39.417643   -12339.874    4383.8266    4383.8266 
    1510    303.06878     39.13554   -12339.594    4221.0916    4221.0916 
    1520    275.48096      35.5731   -12336.027    4189.5039    4189.5039 
    1530    265.55357    34.291167   -12334.743     4232.639     4232.639 
    1540    293.64518    37.918661   -12338.375    4286.8173    4286.8173 
    1550    314.66309    40.632723   -12341.089    4388.7815    4388.7815 
    1560    323.08225    41.719896   -12342.175    4457.2395    4457.2395 
    1570    328.27235    42.390099   -12342.848    4419.9229    4419.9229 
    1580    306.75719    39.611827   -12340.069    4342.3877    4342.3877 
    1590     267.6477    34.561585   -12335.014    4278.4471    4278.4471 
    1600    263.35437    34.007183   -12334.459    4210.1476    4210.1476 
    1610    292.48699    37.769104   -12338.226    4177.3873    4177.3873 
    1620     308.2496    39.804543   -12340.261    4233.9973    4233.9973 
    1630    307.18895    39.667581   -12340.123    4339.6149    4339.6149 
    1640    303.91389    39.244669   -12339.699    4453.2133    4453.2133 
    1650    313.29071    40.455507    -12340.91    4504.2592    4504.2592 
    1660    329.18088    42.507418   -12342.965    4462.5355    4462.5355 
    1670    318.15702    41.083897   -12341.541    4395.1385    4395.1385 
    1680    288.63457    37.271637   -12337.725    4307.1334    4307.1334 
    1690    275.27037    35.545906   -12336.001    4183.4674    4183.4674 
    1700    268.57198    34.680937   -12335.136    4117.2578    4117.2578 
    1710    266.19418    34.373891   -12334.827    4135.7113    4135.7113 
    1720    289.86693    37.430774   -12337.887    4176.3317    4176.3317 
    1730    307.87416    39.756063   -12340.215    4286.9246    4286.9246 
    1740    295.00303    38.094003   -12338.546    4485.7636    4485.7636 
    1750    317.15173    40.954083   -12341.406     4565.349     4565.349 
    1760    366.16825     47.28363   -12347.747    4488.9313    4488.9313 
    1770    339.73044    43.869693   -12344.329    4471.4639    4471.4639 
    1780    275.44079    35.567913   -12336.017    4470.0214    4470.0214 
    1790    276.25467    35.673011   -12336.126    4333.2688    4333.2688 
    1800    305.47987    39.446885   -12339.906    4194.8564    4194.8564 
    1810    299.94225    38.731808   -12339.188    4171.9407    4171.9407 
    1820     283.7009    36.634549   -12337.089    4181.5438    4181.5438 
    1830    277.89032    35.884223   -12336.339    4212.4272    4212.4272 
    1840    284.19284    36.698072   -12337.152    4288.2328    4288.2328 
    1850     304.4347    39.311923   -12339.768     4361.504     4361.504 
    1860    314.91912    40.665785   -12341.122    4417.1807    4417.1807 
    1870    313.13499    40.435399    -12340.89    4425.6015    4425.6015 
    1880    315.91456    40.794326   -12341.251    4360.0044    4360.0044 
    1890    301.01643    38.870518   -12339.327    4316.9252    4316.9252 
    1900    280.59129    36.233002   -12336.685    4293.5711    4293.5711 
    1910    291.66605    37.663095   -12338.119    4209.4236    4209.4236 
    1920    293.92036    37.954196   -12338.413    4190.2007    4190.2007 
    1930    269.15091    34.755695   -12335.207    4298.0974    4298.0974 
    1940     283.5005     36.60867   -12337.061     4346.457     4346.457 
    1950    323.93672    41.830236   -12342.291    4334.0362    4334.0362 
    1960    318.53323    41.132477   -12341.588    4428.0957    4428.0957 
    1970    308.68727    39.861061   -12340.313    4493.8388    4493.8388 
    1980    327.71699    42.318385   -12342.777    4405.7347    4405.7347 
    1990    312.31118    40.329019   -12340.787    4342.8237    4342.8237 
    2000    272.27384    35.158962   -12335.609     4346.645     4346.645 
    2010    282.49675    36.479055   -12336.934    4254.5148    4254.5148 
    2020    303.95386    39.249831   -12339.709    4168.7088    4168.7088 
    2030    289.35118    37.364174   -12337.818    4233.9446    4233.9446 
    2040     285.3162    36.843133   -12337.295     4343.333     4343.333 
    2050    313.95301     40.54103   -12340.998    4392.8022    4392.8022 
    2060    329.29342    42.521951    -12342.98    4422.0335    4422.0335 
    2070      314.078     40.55717   -12341.012    4427.2758    4427.2758 
    2080     300.7831    38.840388   -12339.296    4349.6397    4349.6397 
    2090    290.49454    37.511817   -12337.967     4262.426     4262.426 
    2100    280.56625    36.229768   -12336.684    4215.9525    4215.9525 
    2110    282.40958    36.467799   -12336.923    4194.6558    4194.6558 
    2120    289.42967    37.374309    -12337.83    4222.2791    4222.2791 
    2130    291.61139    37.656037   -12338.111    4300.0442    4300.0442 
    2140    302.23509    39.027885   -12339.482     4350.027     4350.027 
    2150    321.07084    41.460162   -12341.918    4360.9977    4360.9977 
    2160    314.06818    40.555902   -12341.012    4414.6606    4414.6606 
    2170    296.13328    38.239952   -12338.692     4450.083     4450.083 
    2180    308.78908    39.874207    -12340.33    4387.0485    4387.0485 
    2190    318.47708    41.125227   -12341.584    4335.9486    4335.9486 
    2200    294.90964    38.081943   -12338.536    4331.4548    4331.4548 
    2210    282.40685    36.467446   -12336.921    4256.0762    4256.0762 
    2220    286.43992    36.988241   -12337.446    4173.1235    4173.1235 
    2230    272.96352    35.248021   -12335.701    4215.3112    4215.3112 
    2240     281.5906    36.362043   -12336.814    4268.8793    4268.8793 
    2250    320.22025    41.350325    -12341.81    4290.9631    4290.9631 
    2260    317.77953    41.035152   -12341.492    4408.6675    4408.6675 
    2270    298.65983    38.566208   -12339.017     4502.525     4502.525 
    2280    321.20222    41.477127   -12341.935    4426.4163    4426.4163 
    2290    317.78338    41.035649   -12341.495    4360.4441    4360.4441 
    2300    274.31174    35.422117   -12335.871    4355.2419    4355.2419 
    2310    287.58835    37.136538    -12337.59    4247.1244    4247.1244 
    2320      318.653    41.147944    -12341.61    4173.6975    4173.6975 
    2330    290.22435    37.476927    -12337.93    4268.0054    4268.0054 
    2340    278.01045    35.899735   -12336.351    4312.6043    4312.6043 
    2350    306.59697    39.591138    -12340.05    4283.0598    4283.0598 
    2360    303.45926    39.185962   -12339.642    4344.5858    4344.5858 
    2370    295.79775    38.196625   -12338.649    4394.0922    4394.0922 
    2380    316.46211    40.865032   -12341.324    4360.7692    4360.7692 
    2390     306.8401    39.622534   -12340.078    4393.3924    4393.3924 
    2400    301.21015    38.895534   -12339.347      4398.94      4398.94 
    2410    325.41416    42.021019   -12342.483    4315.4007    4315.4007 
    2420    293.04885    37.841657   -12338.297    4336.9661    4336.9661 
    2430    259.55769    33.516915   -12333.964     4331.287     4331.287 
    2440    304.96006    39.379763    -12339.84    4173.3069    4173.3069 
    2450    308.43351    39.828293    -12340.29    4199.2817    4199.2817 
    2460    260.93763    33.695107    -12334.14    4388.9172    4388.9172 
    2470     305.2851    39.421736   -12339.877    4354.7668    4354.7668 
    2480    345.55742    44.622135   -12345.089    4311.1508    4311.1508 
    2490    285.56545     36.87532   -12337.324    4435.3301    4435.3301 
    2500    284.95522    36.796519   -12337.247     4340.963     4340.963 
    2510    324.28071    41.874656   -12342.341    4164.3772    4164.3772 
    2520    265.61532    34.299141    -12334.75    4270.3392    4270.3392 
    2530    249.98469    32.280744   -12332.726    4314.7246    4314.7246 
    2540    331.72856    42.836403   -12343.301     4210.021     4210.021 
    2550     327.6089    42.304427   -12342.763    4376.0234    4376.0234 
    2560     293.5372    37.904719   -12338.351     4553.492     4553.492 
    2570    337.44136    43.574102   -12344.037    4437.4144    4437.4144 
    2580    318.02444    41.066778   -12341.526    4426.5936    4426.5936 
    2590    262.79684    33.935188   -12334.379    4479.9571    4479.9571 
    2600    313.82305    40.524249   -12340.983     4273.721     4273.721 
    2610    334.30366    43.168928   -12343.635    4177.7064    4177.7064 
    2620    260.75598    33.671651   -12334.118    4328.2845    4328.2845 
    2630    270.54441    34.935639   -12335.387    4264.4775    4264.4775 
    2640    316.43386    40.861384   -12341.326    4144.0781    4144.0781 
    2650    278.05148    35.905034   -12336.356    4277.1916    4277.1916 
    2660    275.31684    35.551907   -12336.002    4328.2782    4328.2782 
    2670    316.53918    40.874984   -12341.338    4294.3784    4294.3784 
    2680    294.73881    38.059883   -12338.512    4466.2198    4466.2198 
    2690    304.66104     39.34115    -12339.79    4532.9608    4532.9608 
    2700    365.73489    47.227671   -12347.693    4373.7284    4373.7284 
    2710    328.68741    42.443696   -12342.902    4380.5242    4380.5242 
    2720    259.97004    33.570161   -12334.016    4403.7592    4403.7592 
    2730    277.23038    35.799004   -12336.256      4181.28      4181.28 
    2740     285.2032    36.828542   -12337.288    4083.2334    4083.2334 
    2750    260.34396    33.618446   -12334.067    4240.8063    4240.8063 
    2760    298.09971    38.493879   -12338.949    4306.7994    4306.7994 
    2770    337.84069    43.625667   -12344.087     4333.253     4333.253 
    2780    316.86352    40.916867   -12341.371    4462.1987    4462.1987 
    2790    303.87933    39.240207   -12339.694    4489.9737    4489.9737 
    2800    305.01154     39.38641   -12339.844    4406.4698    4406.4698 
    2810    291.33714    37.620623   -12338.074    4371.9975    4371.9975 
    2820    297.06187    38.359862   -12338.815    4309.4144    4309.4144 
    2830    302.08706    39.008769   -12339.467    4235.3311    4235.3311 
    2840     283.6202    36.624128   -12337.076    4265.1182    4265.1182 
    2850    301.13893    38.886336   -12339.341    4254.2063    4254.2063 
    2860    320.28821      41.3591   -12341.822    4203.3181    4203.3181 
    2870    273.55941    35.324968   -12335.777    4311.3924    4311.3924 
    2880    259.07886    33.455083   -12333.901    4427.6092    4427.6092 
    2890    331.41772    42.796264   -12343.257    4363.0277    4363.0277 
    2900    352.24763    45.486049   -12345.949    4353.4407    4353.4407 
    2910    292.30124    37.745118   -12338.195    4452.8339    4452.8339 
    2920    276.74263    35.736021   -12336.188    4383.4026    4383.4026 
    2930     298.7767      38.5813   -12339.041    4207.8706    4207.8706 
    2940    283.46869    36.604563   -12337.058     4190.125     4190.125 
    2950    282.82188    36.521039   -12336.973    4248.4247    4248.4247 
    2960    314.41452    40.600625    -12341.06     4287.188     4287.188 
    2970    308.72867    39.866407   -12340.322    4404.9316    4404.9316 
    2980    298.11572    38.495946   -12338.947    4505.7291    4505.7291 
    2990    327.70191    42.316438   -12342.775    4460.1709    4460.1709 
    3000    327.00856    42.226905   -12342.687    4396.7834    4396.7834 
    3010    283.27113    36.579052    -12337.03     4369.506     4369.506 
    3020    278.11455    35.913178   -12336.366    4267.3879    4267.3879 
    3030    296.74961    38.319539   -12338.778    4175.0541    4175.0541 
    3040    292.60674    37.784568   -12338.239    4189.2545    4189.2545 
    3050    293.77692    37.935674   -12338.391    4228.2471    4228.2471 
    3060    296.14378    38.241308   -12338.699    4285.4356    4285.4356 
    3070    285.34645    36.847039   -12337.299    4376.0053    4376.0053 
    3080    305.51814    39.451828   -12339.907    4388.4825    4388.4825 
    3090     324.5135    41.904715   -12342.365    4374.7353    4374.7353 
    3100    294.11184    37.978922   -12338.432    4407.9391    4407.9391 
    3110    288.67061    37.276292   -12337.728    4331.7921    4331.7921 
    3120    317.92584    41.054045   -12341.515    4194.0646    4194.0646 
    3130    295.34631     38.13833   -12338.594    4227.2637    4227.2637 
    3140    271.09927    35.007288   -12335.456     4309.605     4309.605 
    3150    303.53414    39.195632   -12339.655    4316.6596    4316.6596 
    3160    305.86119    39.496127   -12339.954    4422.2628    4422.2628 
    3170    290.36862    37.495557   -12337.945    4526.4139    4526.4139 
    3180    332.80312    42.975161   -12343.433     4431.969     4431.969 
    3190    348.63576    45.019644   -12345.483    4339.1731    4339.1731 
    3200    285.73689    36.897457   -12337.349    4358.1203    4358.1203 
    3210    259.13367     33.46216   -12333.912    4271.8492    4271.8492 
    3220    286.03228    36.935601   -12337.394    4155.7898    4155.7898 
    3230    287.48561    37.123272   -12337.578    4220.1047    4220.1047 
    3240    291.46819    37.637545   -12338.091    4310.2308    4310.2308 
    3250    311.09089    40.171442    -12340.63    4346.2633    4346.2633 
    3260     306.5927    39.590586   -12340.045    4419.8213    4419.8213 
    3270    307.64457    39.726416   -12340.179    4440.8666    4440.8666 
    3280    329.58916     42.56014   -12343.019    4367.4438    4367.4438 
    3290    313.15582    40.438088   -12340.896    4349.5365    4349.5365 
    3300    274.84199    35.490589   -12335.942    4347.1825    4347.1825 
    3310    278.30776    35.938128   -12336.393    4255.9217    4255.9217 
    3320    293.15951    37.855947   -12338.313    4230.0891    4230.0891 
    3330    296.15112    38.242256   -12338.696    4307.8278    4307.8278 
    3340    313.14403    40.436566   -12340.894    4321.7423    4321.7423 
    3350    310.35933    40.076975   -12340.535     4332.669     4332.669 
    3360    282.02785    36.418506    -12336.87    4409.4421    4409.4421 
    3370     295.6927     38.18306   -12338.636    4386.9804    4386.9804 
    3380    331.55425    42.813894   -12343.276     4283.383     4283.383 
    3390    304.81633    39.361202   -12339.818     4319.429     4319.429 
    3400     263.4124    34.014677   -12334.463    4384.3082    4384.3082 
    3410     293.0688    37.844233     -12338.3    4282.7517    4282.7517 
    3420    321.10437    41.464492   -12341.926    4238.3416    4238.3416 
    3430    295.07948    38.103874   -12338.557    4362.1875    4362.1875 
    3440    289.75421    37.416217   -12337.869    4411.7917    4411.7917 
    3450    313.27693    40.453727   -12340.913    4353.6134    4353.6134 
    3460    302.91858    39.116145   -12339.571    4361.8937    4361.8937 
    3470    293.95212    37.958297   -12338.411    4348.7007    4348.7007 
    3480    311.10302    40.173009   -12340.632    4247.9038    4247.9038 
    3490    291.32351    37.618863   -12338.076     4241.411     4241.411 
    3500    259.54664    33.515487   -12333.965    4319.3533    4319.3533 
    3510    288.90527    37.306593   -12337.761    4335.9638    4335.9638 
    3520    326.29093    42.134236   -12342.594    4387.4151    4387.4151 
    3530    321.88241    41.564961   -12342.019    4501.8863    4501.8863 
    3540    326.09618    42.109088   -12342.565    4485.2816    4485.2816 
    3550    324.37287    41.886556   -12342.346    4383.8663    4383.8663 
    3560    288.77581    37.289875   -12337.743    4318.6596    4318.6596 
    3570    275.66144    35.596406    -12336.05      4216.29      4216.29 
    3580    284.94978    36.795818   -12337.254    4153.0138    4153.0138 
    3590     274.9337    35.502431   -12335.956    4276.3281    4276.3281 
    3600    286.91819        37.05   -12337.502    4418.7935    4418.7935 
    3610    328.96279    42.479256   -12342.939    4416.2027    4416.2027 
    3620    329.06081    42.491913    -12342.95    4389.7229    4389.7229 
    3630    303.00879    39.127793   -12339.581    4366.9886    4366.9886 
    3640    298.96764    38.605956   -12339.063    4286.7027    4286.7027 
    3650    286.59089    37.007736   -12337.464    4243.6357    4243.6357 
    3660    272.99137    35.251617   -12335.704    4260.5259    4260.5259 
    3670    289.64661    37.402323   -12337.858     4267.719     4267.719 
    3680    301.60141    38.946057   -12339.404     4304.661     4304.661 
    3690    293.79102    37.937494   -12338.391    4380.8183    4380.8183 
    3700    303.41728    39.180541   -12339.635    4377.2634    4377.2634 
    3710    317.36864    40.982094   -12341.441    4304.0095    4304.0095 
    3720    298.74677    38.577434   -12339.033    4322.9532    4322.9532 
    3730    282.17188    36.437105   -12336.888    4428.0605    4428.0605 
    3740    310.01904    40.033033   -12340.488     4452.844     4452.844 
    3750    337.89662     43.63289   -12344.094    4397.2553    4397.2553 
    3760    309.01363    39.903203    -12340.36    4382.4973    4382.4973 
    3770    268.99864    34.736032   -12335.186    4340.4643    4340.4643 
    3780    286.35434     36.97719   -12337.432    4194.2285    4194.2285 
    3790    311.42421    40.214484   -12340.675    4156.8743    4156.8743 
    3800    286.65257      37.0157   -12337.469    4330.0281    4330.0281 
    3810    284.84969    36.782892   -12337.234    4430.4524    4430.4524 
    3820    327.96566    42.350496   -12342.811    4397.4048    4397.4048 
    3830    328.61399    42.434215   -12342.892    4452.8369    4452.8369 
    3840     303.3742    39.174979   -12339.627    4488.7361    4488.7361 
    3850    309.86981    40.013763   -12340.472    4340.3561    4340.3561 
    3860    294.17156    37.986633   -12338.444    4224.7213    4224.7213 
    3870    261.17887    33.726259   -12334.177    4200.0187    4200.0187 
    3880    274.62185    35.462163   -12335.918     4145.035     4145.035 
    3890    288.78865    37.291534    -12337.75    4198.0277    4198.0277 
    3900    279.02194     36.03035   -12336.481    4360.2196    4360.2196 
    3910    312.40522    40.341162   -12340.797    4370.6455    4370.6455 
    3920    341.11454    44.048422   -12344.511    4354.2059    4354.2059 
    3930    303.48824    39.189705   -12339.641    4504.1898    4504.1898 
    3940    301.31234    38.908729    -12339.36    4523.4915    4523.4915 
    3950    338.34801    43.691179   -12344.154    4371.0454    4371.0454 
    3960    305.04045    39.390144   -12339.847    4346.3774    4346.3774 
    3970    257.09001     33.19826   -12333.646    4334.4402    4334.4402 
    3980    287.40256    37.112547    -12337.57    4152.6558    4152.6558 
    3990    304.48302    39.318162   -12339.779    4107.1386    4107.1386 
    4000    269.57533    34.810501   -12335.261    4270.9466    4270.9466 
    4010    282.93648    36.535838   -12336.989    4314.2884    4314.2884 
    4020    322.66047    41.665432   -12342.127    4314.2922    4314.2922 
    4030    311.88198    40.273596   -12340.728    4466.9889    4466.9889 
    4040    308.79048    39.874389   -12340.327    4521.0598    4521.0598 
    4050    332.48804    42.934474   -12343.396    4396.9356    4396.9356 
    4060    304.87788     39.36915   -12339.826     4369.772     4369.772 
    4070    268.10721    34.620921    -12335.07    4365.7698    4365.7698 
    4080    292.05731    37.713619    -12338.17    4229.3057    4229.3057 
    4090    308.77886    39.872888   -12340.334    4192.8038    4192.8038 
    4100     277.8292    35.876331   -12336.328     4343.302     4343.302 
    4110    288.67286    37.276581   -12337.728    4382.7041    4382.7041 
    4120    336.56421    43.460834   -12343.923    4319.7234    4319.7234 
    4130    320.89751    41.437779   -12341.896    4393.5358    4393.5358 
    4140    280.29503    36.194745   -12336.645    4460.1339    4460.1339 
    4150    293.37238    37.883436   -12338.339    4372.4974    4372.4974 
    4160    311.12198    40.175457   -12340.634    4318.0714    4318.0714 
    4170    296.51127    38.288762   -12338.743    4322.1509    4322.1509 
    4180    292.33273    37.749184   -12338.205     4236.665     4236.665 
    4190    287.85266    37.170669   -12337.627    4192.6089    4192.6089 
    4200    276.36852    35.687712   -12336.139    4266.4139    4266.4139 
    4210    302.07332    39.006995   -12339.462    4295.6265    4295.6265 
    4220    327.57582    42.300156   -12342.761    4345.4619    4345.4619 
    4230    307.06151    39.651125   -12340.105    4502.1418    4502.1418 
    4240    302.16886    39.019332   -12339.472    4533.2311    4533.2311 
    4250    321.85045    41.560833   -12342.021    4408.6203    4408.6203 
    4260    295.91372      38.2116   -12338.667    4352.0009    4352.0009 
    4270    267.69059    34.567123   -12335.017    4258.0267    4258.0267 
    4280    289.91183    37.436571   -12337.895    4046.7669    4046.7669 
    4290    280.86728    36.268641   -12336.728    4066.0612    4066.0612 
    4300    246.30454    31.805523   -12332.251    4339.2727    4339.2727 
    4310     305.4369    39.441337   -12339.895    4435.5282    4435.5282 
    4320    378.25209    48.844027   -12349.311    4423.4821    4423.4821 
    4330     334.1583    43.150156   -12343.606     4567.926     4567.926 
    4340    284.78939    36.775105   -12337.222    4596.8149    4596.8149 
    4350    320.46498    41.381926   -12341.842     4368.527     4368.527 
    4360    318.11239    41.078134    -12341.54    4266.8873    4266.8873 
    4370    259.71536    33.537274   -12333.985    4335.6089    4335.6089 
    4380     274.6396    35.464455   -12335.918    4253.0648    4253.0648 
    4390    311.87772    40.273046   -12340.735    4186.3063    4186.3063 
    4400    286.59198    37.007875    -12337.46    4308.7905    4308.7905 
    4410    289.50117    37.383542   -12337.835    4324.6083    4324.6083 
    4420    329.28767    42.521208   -12342.985    4232.2344    4232.2344 
    4430    294.77469    38.064516    -12338.52    4337.2851    4337.2851 
    4440    258.71121    33.407608   -12333.854    4439.4277    4439.4277 
    4450    311.38025    40.208807   -12340.668    4332.8134    4332.8134 
    4460    331.72163    42.835507   -12343.297    4331.9277    4331.9277 
    4470     294.2159    37.992359   -12338.442    4430.5778    4430.5778 
    4480    301.94841    38.990865   -12339.447    4339.4108    4339.4108 
    4490    303.78865    39.228498   -12339.689    4264.1585    4264.1585 
    4500    269.54007    34.805948   -12335.254      4337.38      4337.38 
    4510    300.02111    38.741991   -12339.197    4277.9042    4277.9042 
    4520    335.24264    43.290179   -12343.755    4195.8352    4195.8352 
    4530    281.97267    36.411381   -12336.863     4326.438     4326.438 
    4540    262.22011    33.860714   -12334.308    4396.4298    4396.4298 
    4550    316.49325    40.869054   -12341.331    4324.6201    4324.6201 
    4560    316.38154    40.854629   -12341.312    4413.5743    4413.5743 
    4570    299.92128      38.7291   -12339.178    4498.5084    4498.5084 
    4580    336.48666     43.45082   -12343.912    4355.0093    4355.0093 
    4590    320.28628    41.358851   -12341.819    4277.0883    4277.0883 
    4600    260.90493    33.690884   -12334.138     4307.493     4307.493 
    4610    274.98091    35.508529   -12335.964    4193.6528    4193.6528 
    4620     294.3554    38.010373   -12338.471    4141.5417    4141.5417 
    4630    267.67177    34.564693   -12335.015    4312.4239    4312.4239 
    4640    291.20711    37.603831   -12338.056    4427.0225    4427.0225 
    4650    344.32668    44.463209   -12344.925    4439.8436    4439.8436 
    4660    335.74552    43.355115   -12343.812    4506.7872    4506.7872 
    4670     305.8511    39.494823   -12339.947    4500.3727    4500.3727 
    4680    301.85507    38.978813   -12339.435     4340.991     4340.991 
    4690    290.24343    37.479391   -12337.935     4217.113     4217.113 
    4700    276.16258    35.661118   -12336.115    4171.7189    4171.7189 
    4710    275.93792    35.632108   -12336.087    4149.7881    4149.7881 
    4720    281.35055    36.331045   -12336.785    4203.3882    4203.3882 
    4730    300.83762    38.847428   -12339.303    4340.9865    4340.9865 
    4740    316.79197    40.907627   -12341.364    4494.7413    4494.7413 
    4750     321.4471    41.508749   -12341.963    4547.6142    4547.6142 
    4760     332.4577    42.930557   -12343.388    4463.6922    4463.6922 
    4770    321.41779    41.504964   -12341.964    4376.7799    4376.7799 
    4780    278.73245    35.992967   -12336.445    4348.0737    4348.0737 
    4790    272.00595    35.124369   -12335.576    4260.0805    4260.0805 
    4800    301.88618    38.982829   -12339.443    4129.7155    4129.7155 
    4810    288.61606    37.269248   -12337.726    4156.8916    4156.8916 
    4820    263.68668    34.050094     -12334.5     4303.566     4303.566 
    4830    294.91589     38.08275   -12338.538    4373.7632    4373.7632 
    4840    330.66733    42.699365   -12343.159    4376.0075    4376.0075 
    4850    319.66285    41.278346   -12341.735    4390.1371    4390.1371 
    4860    296.19764    38.248263   -12338.702    4391.7757    4391.7757 
    4870    292.54964    37.777193   -12338.232    4350.7602    4350.7602 
    4880    301.15798    38.888796   -12339.345    4301.6845    4301.6845 
    4890    303.65015    39.210613   -12339.668    4295.0489    4295.0489 
    4900    289.07514    37.328528   -12337.783    4344.0253    4344.0253 
    4910    287.18547    37.084514   -12337.538    4366.5606    4366.5606 
    4920      308.015    39.774249   -12340.231    4348.4363    4348.4363 
    4930    315.19586    40.701521   -12341.158     4368.493     4368.493 
    4940    311.22578    40.188861   -12340.644    4380.2227    4380.2227 
    4950    308.76324    39.870871   -12340.328    4333.1165    4333.1165 
    4960    290.14973    37.467291   -12337.923    4301.1936    4301.1936 
    4970    275.71071    35.602768   -12336.055     4296.453     4296.453 
    4980    292.89391    37.821649   -12338.278    4287.0266    4287.0266 
    4990    300.28289    38.775795   -12339.232    4337.7133    4337.7133 
    5000    298.65518    38.565607   -12339.019    4378.6733    4378.6733 
    5010    318.22858    41.093138   -12341.551     4342.088     4342.088 
    5020    318.63481    41.145595   -12341.604    4365.6392    4365.6392 
    5030     294.1729    37.986807   -12338.439    4436.0394    4436.0394 
    5040    300.56552    38.812292   -12339.267    4365.8745    4365.8745 
    5050    308.69641     39.86224   -12340.322    4240.1324    4240.1324 
    5060    273.96665    35.377556    -12335.83    4244.7589    4244.7589 
    5070    266.28919    34.386159   -12334.837    4274.4737    4274.4737 
    5080       306.15    39.533421   -12339.992    4271.0174    4271.0174 
    5090    320.71556    41.414284   -12341.872     4331.239     4331.239 
    5100    309.99592    40.030047   -12340.485    4376.0968    4376.0968 
    5110    301.03334    38.872701    -12339.33     4358.854     4358.854 
    5120    282.96945    36.540095   -12336.993    4384.7764    4384.7764 
    5130    288.56126    37.262171   -12337.715    4379.7822    4379.7822 
    5140    319.94558    41.314856   -12341.775    4297.7158    4297.7158 
    5150    310.72581    40.124298   -12340.582    4314.5064    4314.5064 
    5160    285.41602    36.856023   -12337.307    4391.9829    4391.9829 
    5170      306.389    39.564283   -12340.021    4360.3855    4360.3855 
    5180    319.64658    41.276246   -12341.737    4329.0112    4329.0112 
    5190    287.24769    37.092548   -12337.545    4372.3218    4372.3218 
    5200    284.81939     36.77898   -12337.232    4307.0368    4307.0368 
    5210    307.41628    39.696936   -12340.157    4208.5292    4208.5292 
    5220    292.22848    37.735723   -12338.191    4265.5005    4265.5005 
    5230    278.91342    36.016336   -12336.468    4324.6488    4324.6488 
    5240    301.34443    38.912873    -12339.37    4284.9956    4284.9956 
    5250     312.0528    40.295654   -12340.753    4311.1798    4311.1798 
    5260    302.41202    39.050732   -12339.505    4390.6967    4390.6967 
    5270    300.65955    38.824433    -12339.28    4390.8492    4390.8492 
    5280    299.20318    38.636371   -12339.092    4378.7636    4378.7636 
    5290     301.0323    38.872567   -12339.327    4398.8857    4398.8857 
    5300    315.52838    40.744458   -12341.202     4380.258     4380.258 
    5310    313.97596    40.543994   -12341.001    4373.5021    4373.5021 
    5320    300.10697    38.753079   -12339.206    4395.0233    4395.0233 
    5330    304.51701    39.322551   -12339.779    4336.8735    4336.8735 
    5340    300.52067      38.8065   -12339.264    4267.2654    4267.2654 
    5350    275.47848     35.57278   -12336.025    4295.7897    4295.7897 
    5360    279.99548    36.156065   -12336.609    4289.0999    4289.0999 
    5370    304.81171    39.360605    -12339.82    4218.4351    4218.4351 
    5380    293.70742    37.926699   -12338.383    4275.3475    4275.3475 
    5390    279.81501     36.13276   -12336.584     4400.962     4400.962 
    5400    310.25935    40.064064    -12340.52    4391.4438    4391.4438 
    5410    332.27312    42.906722   -12343.368     4347.843     4347.843 
    5420    301.58578    38.944038   -12339.397    4423.4006    4423.4006 
    5430    289.21756    37.346919   -12337.799     4407.431     4407.431 
    5440    313.36889    40.465602   -12340.925    4252.1873    4252.1873 
    5450    301.30524    38.907812   -12339.365    4233.1179    4233.1179 
    5460    269.57689    34.810702   -12335.261    4327.5078    4327.5078 
    5470    287.10888    37.074623    -12337.53    4303.4209    4303.4209 
    5480    310.39838    40.082017   -12340.542    4281.6555    4281.6555 
    5490    292.81661    37.811668   -12338.264    4390.5003    4390.5003 
    5500    300.61424    38.818583   -12339.272    4395.1069    4395.1069 
    5510    328.92356     42.47419   -12342.936    4298.3107    4298.3107 
    5520    299.54339    38.680303   -12339.136    4351.0186    4351.0186 
    5530    273.11262    35.267274   -12335.716    4408.9676    4408.9676 
    5540    313.28518    40.454792   -12340.914    4309.6013    4309.6013 
    5550    322.23749    41.610812   -12342.071    4321.9523    4321.9523 
    5560    287.62462    37.141222   -12337.591      4431.81      4431.81 
    5570    299.93352    38.730681   -12339.186    4369.2261    4369.2261 
    5580    314.26315    40.581078   -12341.042    4308.2679    4308.2679 
    5590    285.68944     36.89133   -12337.341    4400.1954    4400.1954 
    5600    304.99698     39.38453   -12339.838    4351.9105    4351.9105 
    5610    335.34813    43.303801   -12343.768    4233.3761    4233.3761 
    5620    280.53897    36.226245   -12336.679    4329.9988    4329.9988 
    5630    253.95528     32.79347    -12333.24    4362.9044    4362.9044 
    5640    307.66431    39.728965   -12340.191    4206.1309    4206.1309 
    5650     299.8401    38.718617   -12339.177    4242.8129    4242.8129 
    5660    263.40947    34.014298    -12334.46    4368.4015    4368.4015 
    5670    318.99268    41.191807   -12341.651    4235.3561    4235.3561 
    5680     340.1501    43.923883   -12344.389    4195.3994    4195.3994 
    5690    269.72642    34.830011   -12335.277    4420.7621    4420.7621 
    5700    275.81835    35.616667   -12336.067      4452.65      4452.65 
    5710    336.38946    43.438269   -12343.903    4346.5582    4346.5582 
    5720    313.13568    40.435487    -12340.89     4472.023     4472.023 
    5730    295.15187    38.113222   -12338.562    4527.3713    4527.3713 
    5740    333.66602    43.086589    -12343.55    4310.7458    4310.7458 
    5750    302.77386    39.097456   -12339.556     4222.148     4222.148 
    5760    242.98822    31.377283   -12331.823    4266.1481    4266.1481 
    5770    273.86255    35.364114    -12335.82    4169.5325    4169.5325 
    5780    307.68971    39.732245   -12340.194    4170.7713    4170.7713 
    5790    288.60758    37.268152   -12337.719    4377.0327    4377.0327 
    5800     312.3798     40.33788   -12340.792    4443.5345    4443.5345 
    5810    349.48433    45.129221   -12345.592    4395.2503    4395.2503 
    5820    314.25588     40.58014   -12341.035    4459.0499    4459.0499 
    5830    281.71082    36.377567   -12336.828    4438.4075    4438.4075 
    5840     297.9126    38.469717   -12338.928    4252.7483    4252.7483 
    5850    289.55667    37.390709   -12337.847    4217.3695    4217.3695 
    5860    272.99307    35.251836   -12335.702    4327.6764    4327.6764 
    5870    303.14536    39.145428   -12339.602    4340.4801    4340.4801 
    5880    326.76901    42.195972   -12342.656    4338.9656    4338.9656 
    5890    310.63982    40.113194   -12340.568    4397.1624    4397.1624 
    5900    300.30243    38.778318   -12339.234    4357.4525    4357.4525 
    5910    290.14872     37.46716   -12337.924    4285.7503    4285.7503 
    5920    270.58493    34.940872   -12335.392    4318.2529    4318.2529 
    5930    289.11134    37.333203   -12337.787    4312.6761    4312.6761 
    5940    319.19469    41.217893   -12341.678    4265.0979    4265.0979 
    5950    303.57579     39.20101   -12339.656    4342.0336    4342.0336 
    5960    292.60691    37.784589   -12338.235    4421.3165    4421.3165 
    5970    325.57358    42.041605   -12342.501    4347.2584    4347.2584 
    5980    323.67434    41.796353   -12342.257    4319.1416    4319.1416 
    5990    272.77191    35.223278   -12335.674    4398.1689    4398.1689 
    6000    270.40274    34.917345   -12335.369    4343.6068    4343.6068 
    6010    305.27781    39.420794   -12339.881    4230.7493    4230.7493 
    6020    295.35203    38.139069   -12338.595    4289.8736    4289.8736 
    6030    284.87806    36.786556   -12337.237    4334.0045    4334.0045 
    6040    315.96072    40.800287    -12341.26    4238.3241    4238.3241 
    6050    308.42697    39.827447   -12340.286    4291.1887    4291.1887 
    6060    274.68641      35.4705   -12335.919    4450.9814    4450.9814 
    6070    304.67818    39.343363   -12339.798    4413.8002    4413.8002 
    6080    344.57331    44.495056   -12344.958    4315.6227    4315.6227 
    6090    309.03887    39.906462   -12340.361     4384.661     4384.661 
    6100    277.62367     35.84979     -12336.3    4402.9173    4402.9173 
    6110    297.20087    38.377812   -12338.836    4308.4699    4308.4699 
    6120    298.54854    38.551837   -12339.008    4323.6591    4323.6591 
    6130    289.05468    37.325887   -12337.778    4374.8903    4374.8903 
    6140    305.03893    39.389947   -12339.847     4344.827     4344.827 
    6150    311.62222    40.240052   -12340.697    4348.1153    4348.1153 
    6160     305.3969    39.436172    -12339.89    4359.5738    4359.5738 
    6170    312.27506    40.324355   -12340.782    4277.6377    4277.6377 
    6180    295.34734    38.138464   -12338.595    4245.4217    4245.4217 
    6190    270.83648    34.973354   -12335.425    4262.7562    4262.7562 
    6200    285.31392    36.842839     -12337.3    4219.8651    4219.8651 
    6210    289.85076    37.428685   -12337.886    4287.3467    4287.3467 
    6220    284.93621    36.794065   -12337.244    4454.5624    4454.5624 
    6230    331.42893    42.797711   -12343.256    4435.7914    4435.7914 
    6240    352.06407    45.462345   -12345.926    4351.5665    4351.5665 
    6250    291.84588    37.686316   -12338.138    4405.3021    4405.3021 
    6260     266.5679    34.422148   -12334.871    4372.9138    4372.9138 
    6270    300.55992    38.811569   -12339.273    4198.7044    4198.7044 
    6280    286.46941    36.992049   -12337.448    4184.9801    4184.9801 
    6290    265.28025    34.255874   -12334.705    4277.1202    4277.1202 
    6300     305.1075    39.398802   -12339.857    4292.9442    4292.9442 
    6310    320.83282    41.429426   -12341.888    4387.3889    4387.3889 
    6320    308.54462     39.84264   -12340.294    4496.0424    4496.0424 
    6330    330.42428     42.66798   -12343.126     4411.145     4411.145 
    6340    321.44865    41.508949   -12341.969    4326.1594    4326.1594 
    6350    270.93172    34.985653   -12335.434    4375.9834    4375.9834 
    6360    283.17066    36.566077    -12337.02    4336.2587    4336.2587 
    6370    314.67498    40.634258   -12341.096    4263.5771    4263.5771 
    6380    291.21897    37.605363   -12338.059     4316.138     4316.138 
    6390    285.23632    36.832818   -12337.285    4323.6859    4323.6859 
    6400    313.24307    40.449355   -12340.909     4253.253     4253.253 
    6410    301.56965    38.941955   -12339.398    4303.5708    4303.5708 
    6420     283.7017    36.634651   -12337.086    4387.5416    4387.5416 
    6430    303.69011    39.215773   -12339.673    4358.1028    4358.1028 
    6440    308.05385    39.779266   -12340.236    4354.4911    4354.4911 
    6450    299.84156    38.718805   -12339.172    4389.4409    4389.4409 
    6460    309.37786    39.950237   -12340.408    4334.5256    4334.5256 
    6470    299.73579    38.705147   -12339.162    4253.2277    4253.2277 
    6480    276.70568     35.73125   -12336.183    4227.2103    4227.2103 
    6490     283.8864    36.658502   -12337.114    4249.8401    4249.8401 
    6500      296.151    38.242241   -12338.699    4364.0047    4364.0047 
    6510     303.1737    39.149088   -12339.602     4506.752     4506.752 
    6520    335.87043    43.371246   -12343.829    4512.8154    4512.8154 
    6530    346.31427    44.719869   -12345.181    4436.3776    4436.3776 
    6540    299.53987    38.679848   -12339.133    4391.1356    4391.1356 
    6550    270.19056    34.889946   -12335.341    4294.0343    4294.0343 
    6560    287.61154    37.139533   -12337.597    4140.8232    4140.8232 
    6570    287.40925    37.113411   -12337.572    4100.7053    4100.7053 
    6580     257.8944    33.302132   -12333.753    4218.9049    4218.9049 
    6590    271.99652    35.123151   -12335.574    4322.1946    4322.1946 
    6600    329.03271    42.488285   -12342.948    4349.3169    4349.3169 
    6610    341.53538    44.102766   -12344.564    4405.6755    4405.6755 
    6620    296.25176    38.255252   -12338.707    4494.2704    4494.2704 
    6630    284.12639    36.689492    -12337.14     4468.769     4468.769 
    6640    321.42413    41.505782   -12341.965    4346.7077    4346.7077 
    6650    322.75798    41.678024   -12342.137    4320.7062    4320.7062 
    6660    287.20474    37.087002   -12337.538    4374.6008    4374.6008 
    6670    289.72867     37.41292   -12337.867    4320.9675    4320.9675 
    6680    305.87321    39.497678   -12339.957    4233.5633    4233.5633 
    6690    283.79628    36.646865   -12337.101    4284.3245    4284.3245 
    6700    279.12981    36.044279   -12336.496    4342.4036    4342.4036 
    6710    311.37231    40.207782   -12340.666     4299.903     4299.903 
    6720    313.60573    40.496185   -12340.954    4300.9448    4300.9448 
    6730    290.38781    37.498035    -12337.95    4374.0707    4374.0707 
    6740    298.39875    38.532494   -12338.987    4369.8947    4369.8947 
    6750    313.31688    40.458886   -12340.917    4325.5802    4325.5802 
    6760     302.8996    39.113693   -12339.569    4345.0154    4345.0154 
    6770    293.27977    37.871477   -12338.326    4374.2151    4374.2151 
    6780    295.87899    38.207116   -12338.663    4375.3304    4375.3304 
    6790    295.05974    38.101326   -12338.556    4400.5934    4400.5934 
    6800    305.18684    39.409047   -12339.864     4393.846     4393.846 
    6810     321.7957    41.553763   -12342.012    4314.2084    4314.2084 
    6820     309.8713    40.013955   -12340.471    4262.2323    4262.2323 
    6830    283.89127     36.65913   -12337.112    4257.5655    4257.5655 
    6840    279.43706    36.083955   -12336.538    4231.3017    4231.3017 
    6850    286.84416    37.040441   -12337.498    4214.7571    4214.7571 
    6860    280.74308    36.252602   -12336.707    4289.4254    4289.4254 
    6870    282.54556    36.485358   -12336.938    4368.9762    4368.9762 
    6880    309.20908    39.928442   -12340.384     4374.645     4374.645 
    6890     330.5693    42.686706   -12343.145    4389.0366    4389.0366 
    6900    323.88053    41.822979   -12342.279    4438.9213    4438.9213 
    6910    312.13406    40.306148   -12340.761    4421.2763    4421.2763 
    6920     304.9915    39.383822    -12339.84    4360.6427    4360.6427 
    6930    289.91503    37.436984   -12337.892    4351.1266    4351.1266 
    6940    284.42826    36.728472   -12337.182    4321.4438    4321.4438 
    6950     297.7602    38.450038   -12338.907    4238.3066    4238.3066 
    6960    300.15899    38.759796   -12339.217    4220.9979    4220.9979 
    6970    285.34839     36.84729   -12337.301    4282.2109    4282.2109 
    6980    290.07788    37.458013   -12337.913    4293.4415    4293.4415 
    6990    304.20744    39.282576    -12339.74    4301.2282    4301.2282 
    7000    297.35488    38.397698   -12338.853    4385.6686    4385.6686 
    7010    296.08363    38.233542   -12338.686    4424.9695    4424.9695 
    7020    317.09929    40.947311   -12341.405    4354.7535    4354.7535 
    7030    314.15115    40.566615   -12341.024    4316.0637    4316.0637 
    7040    290.20918    37.474969   -12337.928    4328.6646    4328.6646 
    7050    293.42987    37.890858   -12338.345    4306.8966    4306.8966 
    7060    306.54578    39.584527   -12340.042    4316.9396    4316.9396 
    7070    301.90898    38.985774    -12339.44    4387.3523    4387.3523 
    7080    304.23655    39.286334   -12339.741    4400.9842    4400.9842 
    7090    312.42441    40.343641   -12340.802    4356.2566    4356.2566 
    7100    293.26353     37.86938   -12338.324    4363.4467    4363.4467 
    7110    284.49554     36.73716    -12337.19    4343.0301    4343.0301 
    7120    304.93598    39.376653   -12339.834    4268.3976    4268.3976 
    7130    304.37535    39.304258   -12339.762     4272.046     4272.046 
    7140    281.92571    36.405317   -12336.858    4334.1647    4334.1647 
    7150    284.32173    36.714717   -12337.169    4325.4853    4325.4853 
    7160    302.48509    39.060168   -12339.517    4286.3715    4286.3715 
    7170    308.70872     39.86383    -12340.32    4287.0583    4287.0583 
    7180    307.03867    39.648176   -12340.105    4299.2825    4299.2825 
    7190    295.05467    38.100671   -12338.556    4346.2574    4346.2574 
    7200    291.43158    37.632818   -12338.086     4412.664     4412.664 
    7210    314.48376    40.609566   -12341.066    4425.1764    4425.1764 
    7220    322.62508    41.660862    -12342.12    4392.4221    4392.4221 
    7230    293.68486    37.923785   -12338.377    4336.6592    4336.6592 
    7240    280.86373    36.268182   -12336.722    4218.4858    4218.4858 
    7250    286.94747    37.053781   -12337.511    4142.0011    4142.0011 
    7260    277.57788    35.843877   -12336.297    4226.1057    4226.1057 
    7270    287.68777    37.149376   -12337.602    4352.9576    4352.9576 
    7280    323.70366    41.800141   -12342.258    4427.5673    4427.5673 
    7290    333.99601    43.129201   -12343.587    4495.2621    4495.2621 
    7300    322.75455     41.67758   -12342.133    4517.8282    4517.8282 
    7310    313.75187    40.515057   -12340.972    4443.3386    4443.3386 
    7320    294.34199    38.008642   -12338.464    4318.0148    4318.0148 
    7330    273.02768    35.256306    -12335.71    4210.1355    4210.1355 
    7340    274.59555    35.458767   -12335.913    4185.4677    4185.4677 
    7350    288.95042    37.312424   -12337.768    4264.0258    4264.0258 
    7360    307.46483    39.703206   -12340.159    4338.5389    4338.5389 
    7370    320.21989    41.350278   -12341.809    4349.7919    4349.7919 
    7380    299.82971    38.717275   -12339.172    4373.4688    4373.4688 
    7390    284.13782    36.690968   -12337.142    4368.5106    4368.5106 
    7400    308.39983    39.823943   -12340.281    4306.0303    4306.0303 
    7410    313.73526    40.512912   -12340.972    4314.3867    4314.3867 
    7420    287.74706    37.157032   -12337.609    4354.8349    4354.8349 
    7430    291.75501    37.674582    -12338.13    4287.1952    4287.1952 
    7440    301.88511    38.982691   -12339.441    4251.4732    4251.4732 
    7450    284.59039    36.749409   -12337.202    4331.6841    4331.6841 
    7460    289.24942    37.351034   -12337.805    4343.0769    4343.0769 
    7470    311.94423    40.281634    -12340.74    4301.1175    4301.1175 
    7480    305.31043    39.425006    -12339.88    4358.9721    4358.9721 
    7490    301.63912    38.950927   -12339.404    4415.9831    4415.9831 
    7500    319.63936    41.275314   -12341.734    4388.5227    4388.5227 
    7510    306.90755    39.631244   -12340.088    4382.4564    4382.4564 
    7520    280.91223    36.274445   -12336.727    4339.5572    4339.5572 
    7530     285.6234    36.882803   -12337.338    4229.4423    4229.4423 
    7540    295.88243    38.207561   -12338.664    4228.2577    4228.2577 
    7550    300.37412    38.787575   -12339.242    4331.9794    4331.9794 
    7560    309.53538    39.970578   -12340.427    4381.9573    4381.9573 
    7570    305.86223     39.49626   -12339.952    4403.6859    4403.6859 
    7580    301.93905    38.989657   -12339.443    4435.1646    4435.1646 
    7590      319.885    41.307033   -12341.765    4404.1704    4404.1704 
    7600    313.80669    40.522136    -12340.98    4373.1987    4373.1987 
    7610    282.56219    36.487505    -12336.94    4350.4972    4350.4972 
    7620    283.21349    36.571608   -12337.026    4242.9208    4242.9208 
    7630    297.11751    38.367047   -12338.825    4160.8415    4160.8415 
    7640    286.52494    36.999219   -12337.453    4242.0761    4242.0761 
    7650    288.49683    37.253851   -12337.707    4340.1789    4340.1789 
    7660    310.16524    40.051912   -12340.511    4332.9011    4332.9011 
    7670     298.8467    38.590339   -12339.046    4368.9255    4368.9255 
    7680    285.99931    36.931344   -12337.382    4453.8743    4453.8743 
    7690    321.29197    41.488717   -12341.945    4430.6671    4430.6671 
    7700    343.54854    44.362727   -12344.824    4359.3975    4359.3975 
    7710    305.57833      39.4596   -12339.915    4362.1804    4362.1804 
    7720    267.78238    34.578976   -12335.029    4366.4315    4366.4315 
    7730    284.31094    36.713324   -12337.168    4287.5935    4287.5935 
    7740    307.09404    39.655325   -12340.115     4239.724     4239.724 
    7750    290.75464    37.545404       -12338    4289.0421    4289.0421 
    7760    280.41081    36.209697   -12336.662    4298.7584    4298.7584 
    7770    297.56326    38.424607   -12338.882    4250.9924    4250.9924 
    7780    301.58801    38.944327   -12339.401    4276.9972    4276.9972 
    7790    296.42427    38.277528   -12338.731    4350.6968    4350.6968 
    7800    312.49785    40.353124    -12340.81    4363.2868    4363.2868 
    7810    311.15234    40.179377   -12340.638     4389.733     4389.733 
    7820    284.50741    36.738693    -12337.19    4458.6381    4458.6381 
    7830    302.96811     39.12254   -12339.576    4431.5526    4431.5526 
    7840    337.42705    43.572253   -12344.034     4380.693     4380.693 
    7850    310.12118    40.046223   -12340.502    4434.0398    4434.0398 
    7860     283.0276    36.547605   -12336.998     4400.774     4400.774 
    7870    305.08795    39.396277   -12339.855    4223.9059    4223.9059 
    7880    296.11129    38.237113   -12338.695    4185.0532    4185.0532 
    7890    262.82801    33.939214   -12334.388    4283.7025    4283.7025 
    7900    288.37807    37.238516   -12337.693    4290.5726    4290.5726 
    7910     321.0637     41.45924    -12341.92    4310.0483    4310.0483 
    7920    306.70438    39.605007   -12340.058    4441.2034    4441.2034 
    7930    309.28913    39.938778   -12340.393    4467.0879    4467.0879 
    7940    321.54052    41.520812   -12341.981    4374.7123    4374.7123 
    7950    294.39689    38.015731    -12338.47    4307.5877    4307.5877 
    7960    274.10955    35.396009   -12335.849    4224.0019    4224.0019 
    7970    280.76834    36.255864   -12336.712    4158.6907    4158.6907 
    7980    284.62905    36.754401   -12337.208     4232.148     4232.148 
    7990    308.03584    39.776941   -12340.232    4344.3177    4344.3177 
    8000    331.74542    42.838579   -12343.299     4414.951     4414.951 
    8010    304.46989    39.316466   -12339.771    4490.0831    4490.0831 
    8020    285.91517    36.920478   -12337.371    4454.1055    4454.1055 
    8030    312.36137      40.3355   -12340.795    4277.5536    4277.5536 
    8040    301.05737    38.875805   -12339.334    4198.0302    4198.0302 
    8050    263.84245    34.070209    -12334.52    4235.3713    4235.3713 
    8060    284.22189    36.701824   -12337.157    4227.6136    4227.6136 
    8070    314.51853    40.614057   -12341.074     4266.627     4266.627 
    8080    303.74369    39.222691   -12339.677     4423.149     4423.149 
    8090    304.09345    39.267856   -12339.722    4512.5368    4512.5368 
    8100    319.96081    41.316822   -12341.775    4463.2788    4463.2788 
    8110    315.01831    40.678593   -12341.134    4384.1182    4384.1182 
    8120    304.16076    39.276548   -12339.732    4330.8071    4330.8071 
    8130    294.35097    38.009801   -12338.465     4306.889     4306.889 
    8140     288.4962     37.25377   -12337.707    4264.5922    4264.5922 
    8150    297.90592    38.468855   -12338.926    4210.1267    4210.1267 
    8160    292.89767    37.822136   -12338.279    4268.9923    4268.9923 
    8170    281.64247    36.368741    -12336.82    4381.8829    4381.8829 
    8180    309.42388    39.956179   -12340.413    4373.7338    4373.7338 
    8190    321.84213    41.559758    -12342.02    4360.7238    4360.7238 
    8200    289.42224     37.37335   -12337.825    4411.2178    4411.2178 
    8210    296.41087    38.275798   -12338.729    4331.3594    4331.3594 
    8220    322.40583     41.63255   -12342.095    4198.1901    4198.1901 
    8230    283.26452    36.578199   -12337.033    4233.2313    4233.2313 
    8240    254.78781    32.900975   -12333.349    4285.4791    4285.4791 
    8250    293.63677    37.917576   -12338.376    4268.0026    4268.0026 
    8260    313.91587    40.536234   -12340.994    4360.6497    4360.6497 
    8270    312.10244    40.302064   -12340.754    4468.8937    4468.8937 
    8280     332.7753    42.971569   -12343.431    4438.9778    4438.9778 
    8290    319.95324    41.315845   -12341.774    4425.2643    4425.2643 
    8300    285.32041    36.843677   -12337.294    4416.7366    4416.7366 
    8310    299.04104    38.615434   -12339.072    4283.3617    4283.3617 
    8320    301.99533    38.996924   -12339.457    4218.6341    4218.6341 
    8330    268.32413    34.648932   -12335.099    4285.9097    4285.9097 
    8340    280.08257     36.16731   -12336.622    4252.2222    4252.2222 
    8350    304.30283    39.294894   -12339.754    4215.6956    4215.6956 
    8360    293.48045     37.89739    -12338.35    4315.2682    4315.2682 
    8370    304.82034     39.36172   -12339.816    4360.1235    4360.1235 
    8380    323.66108    41.794642   -12342.255    4337.7437    4337.7437 
    8390    296.57785     38.29736   -12338.751    4406.2128    4406.2128 
    8400    288.34609    37.234386   -12337.686    4429.1153    4429.1153 
    8410    317.63674    41.016713   -12341.477     4348.179     4348.179 
    8420    305.03311    39.389195   -12339.845    4371.5291    4371.5291 
    8430    287.22061    37.089052    -12337.54     4405.025     4405.025 
    8440    312.36182    40.335558   -12340.794    4293.0831    4293.0831 
    8450    308.80946    39.876839   -12340.335    4244.0723    4244.0723 
    8460    277.02165     35.77205   -12336.223    4322.1922    4322.1922 
    8470    288.55602    37.261494   -12337.716     4326.056     4326.056 
    8480    311.24399    40.191212    -12340.65    4302.9855    4302.9855 
    8490    300.25335    38.771981   -12339.226    4383.9783    4383.9783 
    8500    300.09783    38.751898   -12339.205    4419.9933    4419.9933 
    8510    317.98683     41.06192   -12341.521    4330.5839    4330.5839 
    8520    303.74706    39.223126   -12339.679    4287.2681    4287.2681 
    8530    279.47102     36.08834   -12336.541    4299.2441    4299.2441 
    8540    283.25127    36.576487   -12337.031    4265.6537    4265.6537 
    8550    298.84314     38.58988   -12339.047    4245.0961    4245.0961 
    8560    302.30941    39.037481   -12339.493    4319.3421    4319.3421 
    8570    302.05833    39.005059   -12339.459    4400.6402    4400.6402 
    8580    312.47022    40.349556   -12340.806    4399.2902    4399.2902 
    8590    314.49925    40.611566   -12341.069    4380.6054    4380.6054 
    8600    293.92039      37.9542   -12338.409    4381.5522    4381.5522 
    8610    283.44683     36.60174   -12337.055    4323.0262    4323.0262 
    8620    294.17375    37.986916   -12338.443    4250.2694    4250.2694 
    8630     299.4292    38.665557   -12339.121    4269.3963    4269.3963 
    8640    303.15008    39.146039   -12339.602    4303.7516    4303.7516 
    8650    303.38117    39.175879   -12339.633    4308.7787    4308.7787 
    8660    288.43576    37.245965     -12337.7     4340.036     4340.036 
    8670     291.2838    37.613734   -12338.067    4350.9036    4350.9036 
    8680    317.53563    41.003657   -12341.463    4326.7063    4326.7063 
    8690    311.12787    40.176217   -12340.633     4375.846     4375.846 
    8700    291.77694    37.677414   -12338.129    4411.4541    4411.4541 
    8710    309.42403    39.956199   -12340.413    4329.1983    4329.1983 
    8720    314.45937    40.606416   -12341.065     4305.212     4305.212 
    8730    288.87479    37.302657   -12337.755    4366.7144    4366.7144 
    8740    291.71137    37.668947   -12338.124    4309.1741    4309.1741 
    8750      298.111    38.495337   -12338.954    4226.1776    4226.1776 
    8760    276.54486    35.710483   -12336.163    4288.7433    4288.7433 
    8770    286.37732    36.980157   -12337.433    4351.2549    4351.2549 
    8780    323.23239    41.739284   -12342.199    4340.8356    4340.8356 
    8790    322.12233    41.595941   -12342.053    4365.5473    4365.5473 
    8800    303.39526    39.177698   -12339.632    4372.8037    4372.8037 
    8810    294.74046    38.060096   -12338.517    4333.0923    4333.0923 
    8820    278.25254    35.930997   -12336.384    4358.1604    4358.1604 
    8830    286.03953    36.936538   -12337.389    4371.8882    4371.8882 
    8840    318.15249    41.083312   -12341.543    4297.9723    4297.9723 
    8850     306.4384    39.570662   -12340.027    4296.5383    4296.5383 
    8860     286.4225    36.985991   -12337.436    4357.4838    4357.4838 
    8870    313.54243    40.488012   -12340.946    4346.4391    4346.4391 
    8880    320.88091    41.435636   -12341.895    4347.7881    4347.7881 
    8890    287.99397    37.188917   -12337.641    4396.2108    4396.2108 
    8900    287.18398    37.084322   -12337.538    4347.0357    4347.0357 
    8910     304.0174    39.258036   -12339.717    4258.1418    4258.1418 
    8920     292.2477    37.738204   -12338.192    4277.1909    4277.1909 
    8930     296.9222    38.341827   -12338.796    4285.4435    4285.4435 
    8940    309.05688    39.908788   -12340.368    4258.6948    4258.6948 
    8950    283.26954    36.578847   -12337.032    4324.3453    4324.3453 
    8960    277.73629    35.864334   -12336.315    4383.3415    4383.3415 
    8970    315.98882    40.803915   -12341.263     4344.945     4344.945 
    8980    318.10344    41.076978   -12341.535    4344.9352    4344.9352 
    8990    291.10243    37.590314   -12338.042    4373.5504    4373.5504 
    9000     300.0225     38.74217   -12339.198    4313.1923    4313.1923 
    9010    308.74794    39.868895   -12340.327    4276.8729    4276.8729 
    9020    292.19665    37.731612   -12338.185    4334.8339    4334.8339 
    9030    291.83846    37.685359   -12338.139    4373.9062    4373.9062 
    9040    307.91841    39.761777   -12340.219    4362.8664    4362.8664 
    9050    307.81596    39.748547   -12340.204    4376.7334    4376.7334 
    9060    303.51057    39.192588   -12339.647    4400.9366    4400.9366 
    9070    307.47528    39.704555    -12340.16    4402.1919    4402.1919 
    9080    308.63893    39.854818   -12340.311    4384.7356    4384.7356 
    9090    302.70157    39.088122   -12339.544    4332.9276    4332.9276 
    9100    291.32638    37.619234   -12338.075    4255.5118    4255.5118 
    9110    282.27033    36.449818   -12336.904    4211.0981    4211.0981 
    9120    284.88722    36.787739   -12337.243    4230.3075    4230.3075 
    9130    292.15918    37.726773   -12338.183    4297.6414    4297.6414 
    9140    297.79405    38.454409   -12338.909     4381.673     4381.673 
    9150    316.17846    40.828404   -12341.284    4416.4531    4416.4531 
    9160    328.69059    42.444107   -12342.903    4401.0879    4401.0879 
    9170    306.46376    39.573936    -12340.03    4371.3801    4371.3801 
    9180    277.78547    35.870684   -12336.324    4297.8671    4297.8671 
    9190    275.02055    35.513647   -12335.968    4192.7609    4192.7609 
    9200    282.00773    36.415908   -12336.871    4170.7518    4170.7518 
    9210    292.73466    37.801085   -12338.255    4257.5027    4257.5027 
    9220     316.8956     40.92101   -12341.378    4362.2759    4362.2759 
    9230    326.51365    42.162997   -12342.621    4458.2242    4458.2242 
    9240    313.52899    40.486276    -12340.94    4511.7637    4511.7637 
    9250    310.63664    40.112785   -12340.569       4437.1       4437.1 
    9260    304.31388     39.29632   -12339.754    4307.4201    4307.4201 
    9270    278.78265    35.999451   -12336.453    4234.5733    4234.5733 
    9280    270.32589    34.907421    -12335.36    4189.6261    4189.6261 
    9290    287.62858    37.141733   -12337.599    4171.8526    4171.8526 
    9300    292.36263    37.753045   -12338.208    4264.8592    4264.8592 
    9310    299.44949    38.668177   -12339.122    4388.2671    4388.2671 
    9320     323.4887    41.772382    -12342.23    4455.3345    4455.3345 
    9330     323.6646    41.795096   -12342.252    4529.8649    4529.8649 
    9340    308.83878    39.880625   -12340.333    4553.8482    4553.8482 
    9350    320.32297    41.363589    -12341.82     4414.902     4414.902 
    9360    318.31793    41.104676   -12341.564    4259.1034    4259.1034 
    9370    276.54694    35.710751   -12336.163    4221.3975    4221.3975 
    9380    262.01144    33.833769   -12334.286    4179.9513    4179.9513 
    9390    282.48266    36.477236   -12336.935    4142.9117    4142.9117 
    9400    283.23161    36.573948   -12337.029    4257.6707    4257.6707 
    9410    292.50603    37.771563   -12338.224    4390.3424    4390.3424 
    9420    331.20968    42.769399   -12343.229    4387.3437    4387.3437 
    9430    325.56368    42.040326   -12342.499    4401.3933    4401.3933 
    9440    285.09662    36.814779   -12337.265    4442.5064    4442.5064 
    9450    295.10139    38.106704   -12338.561    4340.8599    4340.8599 
    9460    318.65365    41.148027   -12341.609    4243.9565    4243.9565 
    9470    289.25861    37.352221   -12337.806    4352.5119    4352.5119 
    9480    276.96325     35.76451   -12336.214    4443.8461    4443.8461 
    9490    317.69323    41.024009   -12341.483    4358.0336    4358.0336 
    9500    323.66845    41.795593   -12342.255    4301.3566    4301.3566 
    9510    288.94577    37.311823   -12337.764    4306.4052    4306.4052 
    9520    285.25106    36.834722   -12337.289    4230.8205    4230.8205 
    9530    293.77357    37.935242   -12338.394     4180.918     4180.918 
    9540    276.79969    35.743389   -12336.197    4275.0067    4275.0067 
    9550    281.72586     36.37951   -12336.832     4365.937     4365.937 
    9560    316.07095    40.814522   -12341.272    4399.6308    4399.6308 
    9570    326.03284    42.100909   -12342.559    4447.0468    4447.0468 
    9580    311.69054    40.248875   -12340.704    4438.5154    4438.5154 
    9590    303.15083    39.146135   -12339.601    4343.5792    4343.5792 
    9600    301.00509    38.869054   -12339.324    4274.5442    4274.5442 
    9610    299.34242    38.654352    -12339.11    4260.4443    4260.4443 
    9620    294.28366    38.001109   -12338.457    4273.4712    4273.4712 
    9630    285.37401    36.850598   -12337.305    4336.4128    4336.4128 
    9640    292.83347    37.813845   -12338.268    4394.6406    4394.6406 
    9650    314.99311    40.675339   -12341.133    4386.8344    4386.8344 
    9660    318.42295    41.118237   -12341.575    4389.2944    4389.2944 
    9670     306.7034    39.604881   -12340.059    4410.7901    4410.7901 
    9680    302.37491     39.04594   -12339.502    4354.8136    4354.8136 
    9690    293.97477    37.961222   -12338.417    4266.2206    4266.2206 
    9700     279.3059    36.067018   -12336.521    4243.7205    4243.7205 
    9710    281.18792    36.310045   -12336.764    4239.5201    4239.5201 
    9720    298.38155    38.530274   -12338.987    4202.4546    4202.4546 
    9730    298.69809    38.571149   -12339.028    4234.4636    4234.4636 
    9740    284.90119    36.789543   -12337.243    4349.6968    4349.6968 
    9750    294.59279    38.041027   -12338.494    4404.6957    4404.6957 
    9760    323.28762    41.746416   -12342.205    4388.1099    4388.1099 
    9770    321.59188    41.527445   -12341.985    4423.3909    4423.3909 
    9780    300.22393    38.768182   -12339.221    4428.8838    4428.8838 
    9790    303.02157    39.129444   -12339.585    4304.1269    4304.1269 
    9800    303.95889     39.25048   -12339.709     4222.467     4222.467 
    9810    277.92285    35.888424   -12336.341    4282.2272    4282.2272 
    9820    277.55949    35.841502   -12336.294    4314.9352    4314.9352 
    9830    306.93016    39.634164   -12340.093    4300.3666    4300.3666 
    9840    304.82635    39.362496   -12339.818    4362.5926    4362.5926 
    9850    297.09683    38.364376   -12338.817    4394.7644    4394.7644 
    9860    316.10888     40.81942   -12341.277    4348.1093    4348.1093 
    9870    313.59047    40.494215   -12340.952    4365.6014    4365.6014 
    9880     289.9053    37.435728   -12337.887    4402.4413    4402.4413 
    9890    303.18997     39.15119   -12339.607    4318.5371    4318.5371 
    9900     316.0095    40.806586   -12341.266    4278.2825    4278.2825 
    9910    288.11315    37.204306   -12337.657    4373.3902    4373.3902 
    9920    284.97074    36.798523   -12337.251    4364.9568    4364.9568 
    9930    307.77516    39.743278   -12340.203    4247.8978    4247.8978 
    9940    294.01665    37.966631   -12338.422    4242.3841    4242.3841 
    9950    282.45743    36.473978   -12336.926    4291.1439    4291.1439 
    9960    305.05473    39.391987    -12339.85    4321.7583    4321.7583 
    9970    306.02466    39.517235   -12339.974    4436.9482    4436.9482 
    9980    298.85161    38.590973   -12339.043     4500.176     4500.176 
    9990    324.08474    41.849349   -12342.307    4362.3733    4362.3733 
   10000    321.65874    41.536077   -12341.997    4241.1426    4241.1426 
Loop time of 11.4019 on 1 procs for 10000 steps with 1000 atoms

Performance: 37.888 ns/day, 0.633 hours/ns, 877.048 timesteps/s
99.8% CPU use with 1 MPI tasks x no OpenMP threads

MPI task timing breakdown:
Section |  min time  |  avg time  |  max time  |%varavg| %total
---------------------------------------------------------------
Pair    | 9.3316     | 9.3316     | 9.3316     |   0.0 | 81.84
Neigh   | 1.3322     | 1.3322     | 1.3322     |   0.0 | 11.68
Comm    | 0.085528   | 0.085528   | 0.085528   |   0.0 |  0.75
Output  | 0.57449    | 0.57449    | 0.57449    |   0.0 |  5.04
Modify  | 0.05764    | 0.05764    | 0.05764    |   0.0 |  0.51
Other   |            | 0.02041    |            |       |  0.18

Nlocal:    1000 ave 1000 max 1000 min
Histogram: 1 0 0 0 0 0 0 0 0 0
Nghost:    2057 ave 2057 max 2057 min
Histogram: 1 0 0 0 0 0 0 0 0 0
Neighs:    0 ave 0 max 0 min
Histogram: 1 0 0 0 0 0 0 0 0 0
FullNghs:  33768 ave 33768 max 33768 min
Histogram: 1 0 0 0 0 0 0 0 0 0

Total # of neighbors = 33768
Ave neighs/atom = 33.768
Neighbor list builds = 1000
Dangerous builds not checked

Total wall time: 0:00:11
