
# Define the lattice
variable	lattice_constant equal 6.2045
lattice		diamond ${lattice_constant}
lattice		diamond 6.2045
Lattice spacing in x,y,z = 6.2045 6.2045 6.2045

# Define region
# multiples of lattice spacing
region 		simbox block 0 5 0 5 0 5

# Create Atoms
create_box 	1 simbox
Created orthogonal box = (0 0 0) to (31.0225 31.0225 31.0225)
  2 by 2 by 2 MPI processor grid
create_atoms 	1 box
Created 1000 atoms
  Time spent = 0.000359774 secs
mass		1 18.015

velocity	all create 298.0 120598 rot yes dist gaussian

# Define Interatomic Potential
pair_style	sw
pair_coeff	* * mW_metal.sw mW
Reading potential file mW_metal.sw with DATE: 2019-02-27

neighbor 	2.0 bin
neigh_modify	delay 10 check no

# Pressure computations
compute		1 all msd
compute		total_press all pressure thermo_temp
compute		peratom all stress/atom NULL
compute		p all reduce sum c_peratom[1] c_peratom[2] c_peratom[3]
variable	press equal -(c_p[1]+c_p[2]+c_p[3])/(3*vol)

# Density computations
variable	total_mass equal mass(all)
variable	v equal vol
print 		${total_mass}
print 		18015
18015
print		$v
print		29855.9145926406
29855.9145926406

variable 	density equal v_total_mass/(v_v*18.015)
print 		${density}
print 		0.0334942008524668
0.0334942008524668


# Run equilibration
thermo_style	custom step temp ke pe c_total_press v_press c_1[4]
thermo		10
dump		1 all atom 10 ${simname}.dump
dump		1 all atom 10 testing.dump

fix             1 all momentum 10 linear 1 1 1 rescale
fix 		2 all nve
fix             3 all temp/csvr 298.0 298.0 500.0 928347
fix             4 all press/berendsen iso 1 1 1000.0 modulus 20000
timestep	0.005
run		100000
Neighbor list info ...
  update every 1 steps, delay 10 steps, check no
  max neighbors/atom: 2000, page size: 100000
  master list distance cutoff = 6.3065
  ghost atom cutoff = 6.3065
  binsize = 3.15325, bins = 10 10 10
  1 neighbor lists, perpetual/occasional/extra = 1 0 0
  (1) pair sw, perpetual
      attributes: full, newton on
      pair build: full/bin/atomonly
      stencil: full/bin/3d
      bin: standard
Per MPI rank memory allocation (min/avg/max) = 4.713 | 4.713 | 4.713 Mbytes
Step Temp KinEng PotEng c_total_press v_press c_1[4] 
       0          298    38.481004   -536.75874    1269.8475    1269.8475            0 
      10    90.600188    11.699282   -509.79543    1307.0691    1307.0691  0.051447805 
      20    127.69588    16.489482   -514.64341    689.35214    689.35214  0.085354814 
      30    141.23295    18.237536   -516.40369    742.71747    742.71747  0.091740939 
      40    122.65417    15.838441    -513.9354    1214.2482    1214.2482  0.077818853 
      50    182.62262     23.58222   -521.74594    1138.9134    1138.9134  0.064497377 
      60    141.88126    18.321253   -516.47683    1043.3747    1043.3747  0.074147282 
      70    124.15697    16.032499   -514.15626    1046.3988    1046.3988  0.079770936 
      80    166.72818    21.529758   -519.69293    957.19526    957.19526  0.075529264 
      90     126.5958    16.347428   -514.46789     1072.233     1072.233  0.076153672 
     100    153.63905    19.839546   -517.99643    1051.9715    1051.9715  0.068484558 
     110    150.33457    19.412836   -517.56551     1063.638     1063.638  0.065786999 
     120    140.78128    18.179211   -516.34525    1054.2188    1054.2188  0.063938352 
     130    147.02769    18.985816   -517.17442    1011.1084    1011.1084   0.06201469 
     140    143.86458     18.57736   -516.74851    1092.3997    1092.3997  0.058562104 
     150    154.78054    19.986948   -518.17259    1088.1766    1088.1766  0.056767352 
     160     145.9768    18.850113   -517.02448    1066.8993    1066.8993  0.062845194 
     170    144.38351     18.64437   -516.84163    1061.4313    1061.4313   0.07048873 
     180    143.78326     18.56686   -516.77935    945.35119    945.35119   0.07820675 
     190    133.72528    17.268063   -515.46353    966.07588    966.07588  0.080858722 
     200    145.84935    18.833655   -517.04395    1006.7624    1006.7624  0.072681532 
     210    157.67158     20.36027    -518.5627    1160.5466    1160.5466  0.063692703 
     220    150.38712    19.419622    -517.6142    1125.0199    1125.0199  0.067775663 
     230    143.01235    18.467311   -516.65781    1008.7644    1008.7644  0.078646915 
     240    133.68739    17.263171   -515.45052    895.86494    895.86494  0.084835329 
     250    137.54022     17.76069    -515.9407    948.91173    948.91173  0.077245567 
     260    156.79709    20.247347   -518.43593     1110.623     1110.623  0.062187886 
     270    148.03827    19.116313   -517.28624    1136.2375    1136.2375  0.057183249 
     280    152.11915    19.643281   -517.80313    1074.1761    1074.1761  0.057787371 
     290    142.79599    18.439372   -516.60194    980.73956    980.73956  0.065276182 
     300    135.50644    17.498066    -515.6604    999.24775    999.24775  0.068993981 
     310    152.73934    19.723366     -517.905    1067.0894    1067.0894  0.063748965 
     320    146.48046    18.915151   -517.09095    1099.2905    1099.2905  0.064076353 
     330     155.0318    20.019394   -518.19799    1070.2853    1070.2853  0.068189574 
     340    139.28666     17.98621   -516.16191    991.60243    991.60243  0.079402042 
     350    136.09038    17.573471   -515.74977    966.21935    966.21935  0.083649524 
     360    148.71753    19.204026   -517.36768    1032.7466    1032.7466  0.076718567 
     370    147.26452    19.016398   -517.17629    1052.5374    1052.5374  0.071987084 
     380    142.58827    18.412549   -516.56049    1044.8664    1044.8664  0.069003542 
     390     152.8122    19.732775   -517.88663    1066.1169    1066.1169   0.06321409 
     400    145.33774    18.767591   -516.93893    1054.9507    1054.9507  0.064661154 
     410    146.04788    18.859291    -517.0225    972.05371    972.05371  0.066239582 
     420    139.73569    18.044193   -516.19272     1034.668     1034.668  0.065975329 
     430    156.18336    20.168095   -518.32146    1088.1862    1088.1862   0.06206007 
     440    150.81692    19.475122   -517.61643    1048.2292    1048.2292   0.06731539 
     450     133.3475     17.21928   -515.36277    944.26252    944.26252   0.07838557 
     460    142.03157    18.340662   -516.48017    940.84618    940.84618   0.07808372 
     470    141.59627    18.284452   -516.43339    1065.1843    1065.1843  0.069652002 
     480    158.22842    20.432175   -518.58239    1119.9476    1119.9476   0.06097715 
     490    153.06508    19.765429   -517.91975    1063.7564    1063.7564  0.064168757 
     500    136.74172     17.65758   -515.81681    997.55594    997.55594  0.074049544 
     510     143.0847    18.476654   -516.62082    947.48248    947.48248  0.076960264 
     520    144.27848    18.630808   -516.77098    993.81068    993.81068  0.073146423 
     530    140.89753    18.194222   -516.31809    1079.7359    1079.7359  0.066823444 
     540    167.97506    21.690768   -519.83059    1123.2199    1123.2199  0.060498727 
     550    137.31422    17.731506   -515.82843    1102.8395    1102.8395    0.0702751 
     560    143.64732    18.549305   -516.65439     968.4032     968.4032  0.077232207 
     570    141.93412    18.328079    -516.4168    949.74907    949.74907  0.079269516 
     580     139.3704    17.997023   -516.06984    1028.7905    1028.7905  0.074630589 
     590    153.82559    19.863634   -517.94648    1083.1525    1083.1525   0.06656245 
     600    147.84127    19.090873   -517.15618    1072.8732    1072.8732  0.062575509 
     610    144.66898    18.681234   -516.74049    1023.3309    1023.3309  0.062350568 
     620     150.6381    19.452031   -517.50291    1023.1358    1023.1358  0.061660009 
     630    144.68116    18.682806   -516.72943     1075.292     1075.292  0.063314321 
     640    152.24467    19.659488    -517.6915    1067.8619    1067.8619   0.06673621 
     650    145.50035    18.788589   -516.82547    1024.0726    1024.0726   0.07530593 
     660    139.05171     17.95587   -515.99109    971.38608    971.38608  0.082904987 
     670    139.03276    17.953424   -515.99459    961.18297    961.18297   0.08222906 
     680    149.94563    19.362612   -517.39827    1030.3802    1030.3802  0.073738502 
     690    146.10505    18.866674   -516.90682    1109.4434    1109.4434  0.067398688 
     700    156.90159    20.260841   -518.29436    1084.0135    1084.0135  0.064365312 
     710    139.15408     17.96909   -515.99746    1046.8831    1046.8831  0.069337649 
     720    151.28967    19.536169   -517.57467    989.60969    989.60969   0.07081715 
     730    142.64581    18.419979    -516.4517    959.67354    959.67354  0.075089272 
     740    133.78328    17.275553   -515.30005    971.87893    971.87893  0.075467649 
     750    153.55076    19.828145   -517.85465    1037.5878    1037.5878  0.064666215 
     760    151.52531    19.566597     -517.572    1113.0733    1113.0733  0.058651377 
     770    149.75448    19.337929   -517.33812     1071.811     1071.811  0.060205031 
     780    149.03973    19.245632   -517.25343    980.61209    980.61209  0.066327053 
     790     137.9599    17.814884   -515.79115    994.60315    994.60315  0.072784345 
     800    153.32272    19.798698   -517.77359    1026.0755    1026.0755  0.072755118 
     810    140.75399    18.175687   -516.15454    1021.0737    1021.0737  0.076526565 
     820     144.2134    18.622404   -516.60455    1011.2199    1011.2199  0.077022192 
     830    150.02308    19.372613   -517.35878    1024.0515    1024.0515  0.074741213 
     840    142.23925     18.36748   -516.34821    1063.7698    1063.7698  0.073569256 
     850    155.88123    20.129082   -518.11569    1066.2463    1066.2463  0.072196132 
     860    144.59254    18.671363   -516.64673    1053.4889    1053.4889  0.075939919 
     870    141.80751    18.311729   -516.28443    960.40879    960.40879  0.079061557 
     880    136.90058    17.678093   -515.63466    938.42134    938.42134  0.077649596 
     890     141.9771    18.333628   -516.28353    1020.7545    1020.7545  0.063279335 
     900    160.43493    20.717104   -518.67739    1167.1221    1167.1221  0.046101949 
     910    161.61599    20.869615   -518.85555    1180.3283    1180.3283  0.045053949 
     920    143.96082    18.589788   -516.56876    1044.6408    1044.6408  0.059420586 
     930    140.25636    18.111428   -516.08857    950.18557    950.18557  0.073863819 
     940    142.30448    18.375903   -516.34802    966.12036    966.12036  0.081098592 
     950    138.16542    17.841423   -515.81494    1024.4002    1024.4002   0.08238002 
     960    152.10174    19.641032   -517.61477    1035.1681    1035.1681  0.078365703 
     970    150.27146    19.404687   -517.38987    1021.8181    1021.8181  0.077434658 
     980    139.70565    18.040314   -516.01602    1016.9314    1016.9314  0.080170895 
     990    147.16288    19.003273   -516.98854    980.31524    980.31524  0.077701712 
    1000    140.63823    18.160739   -516.13864    1012.7092    1012.7092  0.071639735 
    1010    155.87228    20.127925   -518.11615    1070.0607    1070.0607  0.062177612 
    1020    151.23258    19.528797   -517.51565    1046.0427    1046.0427  0.060234854 
    1030    139.59821    18.026441   -516.00059    1012.8629    1012.8629  0.061618662 
    1040     151.8414    19.607414   -517.59939    1026.7611    1026.7611  0.059868373 
    1050    144.40398    18.647014   -516.63695     1075.768     1075.768  0.060649787 
    1060    156.10347     20.15778    -518.1392    1079.1306    1079.1306  0.062611972 
    1070    141.94351    18.329291   -516.29299    1003.1826    1003.1826  0.074212219 
    1080    138.35161    17.865466   -515.81862    976.08455    976.08455  0.080155308 
    1090    146.98562    18.980383   -516.93473    1002.1057    1002.1057  0.078185793 
    1100    148.72287    19.204716   -517.16087    1028.4001    1028.4001  0.075689417 
    1110    144.03771    18.599716   -516.54757     1065.589     1065.589  0.074479399 
    1120    153.57781    19.831639   -517.78637    1057.7222    1057.7222  0.073574586 
    1130     139.7626    18.047669   -515.99437    1051.5758    1051.5758  0.075903501 
    1140    149.00978    19.241765   -517.19342    1010.4678    1010.4678  0.074074092 
    1150    141.79581    18.310218   -516.28542    976.45843    976.45843  0.072574963 
    1160    144.67144    18.681551   -516.62285    1034.6515    1034.6515  0.065069592 
    1170    153.75548    19.854581   -517.79419    1115.2164    1115.2164  0.056893265 
    1180    156.00172     20.14464   -518.06763    1081.4977    1081.4977  0.055927078 
    1190    138.08593    17.831158   -515.75739    1054.2501    1054.2501  0.064923963 
    1200    149.27927    19.276564   -517.22426    973.99442    973.99442  0.069549711 
    1210    138.05242    17.826831   -515.75019    1020.8525    1020.8525  0.070692869 
    1220    153.02251    19.759932   -517.68498    1068.0779    1068.0779  0.066369657 
    1230    154.23848    19.916952   -517.83441    1088.8548    1088.8548  0.066237072 
    1240    146.66635    18.939156    -516.8599     1078.466     1078.466  0.072960302 
    1250    142.49381    18.400352    -516.3139    985.83689    985.83689  0.081598258 
    1260    141.16758    18.229095   -516.13212    956.85267    956.85267  0.082892139 
    1270    145.11955    18.739416    -516.6303    1038.6343    1038.6343  0.077852511 
    1280    152.25393    19.660684   -517.56028    1035.2855    1035.2855  0.072495924 
    1290     145.4571    18.783004    -516.6556    1057.1559    1057.1559  0.069075756 
    1300    144.22156    18.623458    -516.4829    1019.3012    1019.3012  0.064672429 
    1310    149.92939    19.360514   -517.22987    1051.2965    1051.2965  0.057633651 
    1320     153.4902    19.820325   -517.67711    1148.6899    1148.6899  0.051623907 
    1330    154.65322    19.970508   -517.83326    1105.6373    1105.6373  0.055329485 
    1340    146.68089    18.941033   -516.80906    1010.0162    1010.0162  0.068438601 
    1350    134.89525    17.419143   -515.29092    954.86391    954.86391  0.080312257 
    1360    141.68396    18.295775   -516.16324    970.87007    970.87007  0.081654523 
    1370    148.98645    19.238752   -517.11528    1047.2882    1047.2882  0.075474907 
    1380    147.76652    19.081222   -516.93653    1096.0272    1096.0272  0.069976248 
    1390    154.63492    19.968145   -517.82956      1076.87      1076.87  0.068508184 
    1400    145.45509    18.782744   -516.63922    1042.2291    1042.2291  0.072524724 
    1410    137.86583    17.802736   -515.67063    999.52575    999.52575  0.075226895 
    1420    150.60133    19.447283   -517.32317     1002.805     1002.805  0.070241635 
    1430    143.30641    18.505284   -516.36204    1071.7333    1071.7333  0.065654311 
    1440    153.84278    19.865854   -517.74585    1090.0168    1090.0168  0.061369207 
    1450    147.61334    19.061441   -516.94221    1083.1359    1083.1359  0.062169478 
    1460    149.61185    19.319511   -517.20958     1036.808     1036.808  0.065765157 
    1470    144.56939    18.668373   -516.55172    1014.7156    1014.7156   0.07146785 
    1480    143.04058    18.470956   -516.34649    999.94823    999.94823  0.073559999 
    1490    147.41071    19.035275   -516.90109    1065.3247    1065.3247  0.070730539 
    1500    150.69203    19.458995   -517.32908    1059.7142    1059.7142  0.068363776 
    1510    143.85436     18.57604   -516.45106    1025.2741    1025.2741  0.069503805 
    1520     142.3196    18.377856   -516.24326    1009.7071    1009.7071  0.068596406 
    1530    153.44196    19.814095   -517.68395    1048.6379    1048.6379  0.063215288 
    1540    150.91641     19.48797   -517.33481    1120.0733    1120.0733  0.063462953 
    1550    151.63159    19.580321   -517.42298     1018.402     1018.402   0.07137644 
    1560    131.98032    17.042736    -514.8681    957.87142    957.87142  0.081106387 
    1570    146.76304    18.951641   -516.76636    959.63068    959.63068  0.077684122 
    1580    147.96489    19.106837   -516.92917    1031.4228    1031.4228  0.071684528 
    1590    152.10207    19.641074   -517.46311    1071.5672    1071.5672  0.066923615 
    1600     145.4318    18.779736   -516.60521     1036.506     1036.506  0.066709062 
    1610    148.29495    19.149458   -516.97231    1032.8457    1032.8457  0.065770433 
    1620    147.43077    19.037865   -516.87045    1054.1214    1054.1214  0.065211055 
    1630    151.17555    19.521433   -517.33685    1054.4828    1054.4828  0.066975853 
    1640    142.56882    18.410038   -516.21505    1033.2876    1033.2876  0.071506527 
    1650    144.41071    18.647883   -516.44048    1009.8084    1009.8084  0.070834458 
    1660    154.39972    19.937773   -517.75072    1028.4191    1028.4191  0.066374196 
    1670    147.07616    18.992075   -516.78255    1065.2791    1065.2791  0.068029225 
    1680     144.8581    18.705654   -516.50734     1010.539     1010.539  0.072017613 
    1690    145.31375    18.764492   -516.57249    1011.9907    1011.9907  0.073730267 
    1700    142.39127    18.387111   -516.19256    1010.2024    1010.2024  0.072266992 
    1710    152.32753    19.670189   -517.48638    1049.3356    1049.3356  0.067296801 
    1720     151.8479    19.608253   -517.40814    1092.9377    1092.9377  0.066221272 
    1730    144.94315    18.716638   -516.50423    1032.6003    1032.6003  0.070450305 
    1740    147.22832    19.011723   -516.80987    970.04168    970.04168  0.074527946 
    1750    141.61829    18.287295   -516.06318    1005.4588    1005.4588  0.075677615 
    1760    149.43055    19.296099   -517.07227    1047.6132    1047.6132  0.072363454 
    1770     151.3438    19.543158    -517.3219    1017.0635    1017.0635   0.07085642 
    1780    141.61646    18.287059   -516.06971    1003.2454    1003.2454  0.071192225 
    1790     144.8411    18.703459   -516.47693    998.65259    998.65259   0.06776324 
    1800    149.49403    19.304296   -517.06814    1065.3186    1065.3186  0.060503521 
    1810     156.4261    20.199441   -517.95721    1111.8037    1111.8037  0.056583467 
    1820    149.06292    19.248627   -517.01269    1056.0418    1056.0418  0.062648036 
    1830    145.89468    18.839509   -516.59365    1003.7772    1003.7772  0.071082543 
    1840    138.41233    17.873306   -515.61816    961.53847    961.53847  0.077124454 
    1850    147.29766    19.020677    -516.7652    1010.2031    1010.2031  0.074504653 
    1860    154.64424    19.969347   -517.70301    1090.3467    1090.3467  0.071577856 
    1870    148.00545    19.112074   -516.81816     1045.221     1045.221  0.075928193 
    1880    142.80948    18.441114   -516.14386    946.33887    946.33887  0.081820797 
    1890    140.46085    18.137834   -515.83826    977.11367    977.11367  0.080900515 
    1900    151.63162    19.580325    -517.2797    1007.4819    1007.4819  0.072603516 
    1910    147.86209    19.093563   -516.79209    1028.4711    1028.4711  0.067042163 
    1920    146.68775    18.941919   -516.62179    1044.9779    1044.9779  0.061813951 
    1930    152.15277    19.647622   -517.31879    1083.4856    1083.4856  0.055961652 
    1940    152.48943    19.691095   -517.34603    1071.0509    1071.0509  0.055518698 
    1950    149.69972    19.330857   -516.99373    1028.4542    1028.4542  0.061118176 
    1960    144.23813    18.625598   -516.27793    1039.7683    1039.7683  0.068303704 
    1970    148.06784    19.120132   -516.76789    1053.1219    1053.1219  0.072438274 
    1980     147.9382    19.103391   -516.74651    1031.9019    1031.9019  0.075754198 
    1990    145.31586    18.764766   -516.39989    992.59112    992.59112  0.079391452 
    2000    143.23282    18.495781   -516.12269    988.65431    988.65431  0.080733261 
    2010    147.10716    18.996078   -516.62848    1006.4154    1006.4154  0.076837036 
    2020    149.58345    19.315843   -516.94642     1034.963     1034.963  0.071658672 
    2030    155.31458    20.055909   -517.68909     1065.344     1065.344  0.069312742 
    2040     140.7791    18.178929    -515.8009    1014.8383    1014.8383  0.073034764 
    2050    147.18548    19.006191   -516.65699    974.53009    974.53009  0.072145204 
    2060    143.65135    18.549826   -516.19088    1008.6135    1008.6135   0.06794019 
    2070    154.98058    20.012779   -517.66339    1024.4378    1024.4378  0.060860709 
    2080    148.94084    19.232863   -516.87685    1078.4897    1078.4897  0.059332719 
    2090    150.86384    19.481182   -517.13916    1030.3522    1030.3522  0.061414362 
    2100     144.1105    18.609116   -516.25962    1024.2952    1024.2952  0.065542029 
    2110    150.36541    19.416818   -517.07542    1008.3984    1008.3984  0.067105475 
    2120    148.59736    19.188509   -516.83776    1017.6173    1017.6173  0.071202612 
    2130    144.24042    18.625893   -516.26168    1023.8646    1023.8646  0.075512971 
    2140    148.71082     19.20316   -516.83427    984.49858    984.49858  0.077857492 
    2150    147.01923    18.984723   -516.60655     968.5224     968.5224  0.080159141 
    2160    140.53948    18.147988   -515.76303    995.24173    995.24173  0.080883016 
    2170    152.78122    19.728775   -517.36189    1015.4719    1015.4719  0.075394738 
    2180    146.07997    18.863435   -516.46665    1060.3838    1060.3838  0.072621875 
    2190    150.45155    19.427942   -517.03312    1016.2759    1016.2759  0.070467516 
    2200    145.32104    18.765435   -516.37481    966.86322    966.86322  0.068635952 
    2210    142.55844    18.408697   -516.01675    1002.0707    1002.0707   0.06339913 
    2220    155.20749    20.042081   -517.66397    1063.6303    1063.6303  0.054802658 
    2230    152.57351    19.701953   -517.31752    1112.9612    1112.9612  0.052808677 
    2240    151.15915    19.519315   -517.13822     1071.746     1071.746  0.058746698 
    2250    148.98434     19.23848   -516.83938    1017.8173    1017.8173    0.0685118 
    2260    141.07359    18.216958    -515.8023    981.13404    981.13404  0.077873869 
    2270    150.13675    19.387292   -516.98676    960.96081    960.96081  0.082325981 
    2280    138.29094    17.857631   -515.43934    1010.1752    1010.1752  0.084186297 
    2290    151.72368    19.592214   -517.16819    1034.0067    1034.0067  0.078137468 
    2300    149.35081    19.285803   -516.85561    1024.1069    1024.1069  0.074718282 
    2310    147.73392    19.077012   -516.64195    996.81795    996.81795  0.072772995 
    2320    145.52984    18.792397   -516.36082    1014.4335    1014.4335  0.069388254 
    2330    151.90932    19.616185   -517.19541    1052.7131    1052.7131   0.06387239 
    2340    149.49592     19.30454   -516.87447     1063.379     1063.379  0.061288674 
    2350    152.34355    19.672257   -517.23128    1029.1171    1029.1171   0.06205546 
    2360    144.90076    18.711163   -516.26826    1018.2209    1018.2209    0.0663463 
    2370    146.92819    18.972967   -516.52949    1006.6153    1006.6153  0.067990542 
    2380    147.46617    19.042437    -516.5962    1031.0946    1031.0946  0.067436132 
    2390    152.91312    19.745806   -517.29601    1047.5625    1047.5625  0.067207269 
    2400     146.3288    18.895567   -516.43232    1038.7068    1038.7068  0.071428291 
    2410    146.29527    18.891238   -516.44798    983.09748    983.09748  0.074682652 
    2420    143.72353    18.559146   -516.10767    1007.4479    1007.4479  0.074997673 
    2430    149.48776    19.303486   -516.87133    1038.0824    1038.0824   0.07108057 
    2440     152.6172    19.707595   -517.27191    1035.6603    1035.6603  0.069067245 
    2450    149.69559    19.330325   -516.87403    1059.4962    1059.4962  0.070414976 
    2460    145.81529    18.829258   -516.35433    1014.8912    1014.8912  0.072735136 
    2470    147.33981     19.02612   -516.54302    982.92054    982.92054  0.072578752 
    2480      144.821    18.700864   -516.20462    998.17106    998.17106  0.070853512 
    2490    148.44262    19.168527   -516.69331    1021.2152    1021.2152  0.066826671 
    2500    151.43359    19.554754   -517.08633    1040.4835    1040.4835  0.062666174 
    2510    153.39957    19.808622   -517.35662    1027.5963    1027.5963  0.062458957 
    2520    146.59197    18.929551   -516.46145    1041.8222    1041.8222  0.068120664 
    2530    144.60347    18.672775   -516.19792    991.95966    991.95966  0.073408618 
    2540    144.47836    18.656619   -516.17034    981.51374    981.51374  0.074281691 
    2550    149.03726    19.245313    -516.7471    1041.5669    1041.5669  0.070650831 
    2560    152.96217     19.75214   -517.24289    1036.8697    1036.8697  0.068250507 
    2570    152.64608    19.711324   -517.18859    1009.2184    1009.2184  0.070335565 
    2580    142.83605    18.444546   -515.91816    968.23605    968.23605  0.075525152 
    2590    148.06781    19.120128   -516.60147    946.87524    946.87524  0.077978047 
    2600    143.71736     18.55835   -516.04359    962.91101    962.91101  0.078211872 
    2610    146.33266    18.896066   -516.39633    976.47484    976.47484  0.073808663 
    2620    151.88368    19.612874     -517.129    1033.3397    1033.3397  0.067604956 
    2630    151.76035    19.596948   -517.09167    1050.4997    1050.4997  0.064231097 
    2640    151.00917    19.499947   -516.98449    1005.7486    1005.7486  0.066447746 
    2650    146.88942    18.967961   -516.44472    990.21903    990.21903  0.070493682 
    2660    146.92431    18.972466   -516.43704    1010.7741    1010.7741  0.072116679 
    2670    151.75931    19.596814    -517.0752    1015.8845    1015.8845  0.073157921 
    2680    142.61739     18.41631   -515.89228    994.43796    994.43796  0.076296874 
    2690    145.72299    18.817339    -516.2972    941.80926    941.80926  0.075552218 
    2700    144.97306      18.7205   -516.19352    997.95607    997.95607  0.070627786 
    2710    152.55614    19.699709   -517.17863    1051.3185    1051.3185  0.063024578 
    2720    155.32035    20.056654   -517.52656    1066.2723    1066.2723  0.061510701 
    2730    151.72576    19.592481   -517.04696    1028.8864    1028.8864  0.066433305 
    2740    140.22662    18.107587     -515.554    985.90431    985.90431  0.074367941 
    2750    152.41289    19.681211   -517.13017    962.63144    962.63144  0.075979658 
    2760    139.33017    17.991828   -515.42675    987.98099    987.98099  0.076563562 
    2770    155.46837    20.075769   -517.52956    1004.0166    1004.0166  0.072599223 
    2780    150.27461    19.405093   -516.83239    1034.4021    1034.4021  0.072433818 
    2790    146.89986    18.969309   -516.38632    1015.0832    1015.0832  0.074853589 
    2800    147.69636    19.072162   -516.48018    931.28922    931.28922  0.077379199 
    2810    142.11384    18.351286   -515.75349    933.98304    933.98304  0.076251686 
    2820    146.33743    18.896682   -516.29007    1003.8364    1003.8364  0.069775763 
    2830    156.33548    20.187739   -517.59583    1034.3106    1034.3106  0.061633347 
    2840    150.25474    19.402527   -516.78873    1037.4227    1037.4227  0.060005621 
    2850    149.92827     19.36037   -516.74421    1014.2601    1014.2601  0.062449425 
    2860    151.08217    19.509375   -516.87929    1007.8544    1007.8544  0.065742524 
    2870    148.59329    19.187983   -516.55516    978.42428    978.42428  0.071136009 
    2880    146.38735    18.903128   -516.27491    971.90595    971.90595  0.076930142 
    2890    147.87326    19.095004   -516.46547    962.55137    962.55137  0.079804819 
    2900    145.94005    18.845368   -516.21274    965.38173    965.38173  0.081114936 
    2910    147.99533    19.110768   -516.48463    962.11599    962.11599  0.080248414 
    2920    144.50818     18.66047   -516.01642    976.24018    976.24018  0.077567165 
    2930    150.87205    19.482241   -516.84389    1010.2731    1010.2731  0.070719807 
    2940    150.47545    19.431028   -516.80405    1056.2158    1056.2158  0.065168401 
    2950    154.55964    19.958423   -517.33218    1016.2805    1016.2805  0.063044676 
    2960    147.59879    19.059562   -516.41858    1015.8312    1015.8312  0.066560329 
    2970    145.18171    18.747442   -516.10805    982.78014    982.78014  0.069724017 
    2980    145.47086     18.78478   -516.14902    977.26617    977.26617  0.068864609 
    2990    152.44477    19.685329   -517.04826    1034.2008    1034.2008  0.064375564 
    3000    154.25151    19.918634    -517.2681    1044.3505    1044.3505  0.063046069 
    3010    147.91459    19.100342   -516.43093     1014.178     1014.178  0.067999529 
    3020    144.80646    18.698987   -516.02494    964.24043    964.24043  0.073185552 
    3030    150.64196     19.45253   -516.77226    1011.4265    1011.4265   0.07316877 
    3040    151.16717    19.520351   -516.82212    1045.2679    1045.2679   0.07363278 
    3050    151.45934    19.558078   -516.87326    993.03395    993.03395  0.077574873 
    3060    140.27027    18.113224    -515.4266    979.27543    979.27543  0.081350608 
    3070    148.84553    19.220555   -516.54342    994.70738    994.70738  0.078287713 
    3080    151.76135    19.597077   -516.89879    998.06805    998.06805   0.07412272 
    3090    143.63913    18.548248   -515.84543    1020.3424    1020.3424  0.071518459 
    3100    151.47583    19.560207   -516.86474    983.42006    983.42006  0.066634805 
    3110    145.97966    18.850482   -516.15392    1032.4557    1032.4557  0.061695493 
    3120    155.54973    20.086275   -517.39759    1050.4487    1050.4487  0.056396175 
    3130    154.22382    19.915058   -517.21605    1029.0636    1029.0636  0.058252288 
    3140     146.6431    18.936153   -516.23301    1027.4659    1027.4659  0.064059952 
    3150     148.0914    19.123174   -516.41928    988.30917    988.30917    0.0690726 
    3160    148.43014    19.166915   -516.44436     997.6769     997.6769  0.072337466 
    3170    148.98225     19.23821   -516.54027    1053.6488    1053.6488  0.074696443 
    3180     151.2847    19.535527   -516.86273    1021.6213    1021.6213  0.078206898 
    3190    145.39977    18.775601   -516.10244    962.78259    962.78259  0.082592779 
    3200    146.32942    18.895647   -516.22375    930.36861    930.36861    0.0829837 
    3210    144.47408    18.656066   -515.98313    985.60596    985.60596  0.078689514 
    3220     149.4634    19.300341   -516.63228    1044.4263    1044.4263  0.070528973 
    3230    155.50708    20.080767   -517.41737    1033.1928    1033.1928  0.063181839 
    3240    146.51498    18.919609   -516.26596    1011.9252    1011.9252  0.061523504 
    3250    149.86202    19.351815   -516.71455     1006.352     1006.352   0.05978976 
    3260    150.47998    19.431613   -516.79436    1042.1234    1042.1234   0.05837529 
    3270     152.0891      19.6394   -517.01425     1052.941     1052.941  0.059599678 
    3280    149.23716    19.271126   -516.64212    1030.4545    1030.4545  0.065108075 
    3290    149.99716    19.369266   -516.74567    981.66905    981.66905  0.071871129 
    3300    141.96441    18.331989    -515.7099     976.3488     976.3488  0.078641058 
    3310    145.76474    18.822729   -516.19957    943.99778    943.99778  0.079769311 
    3320    148.11074    19.125671   -516.48668    977.78429    977.78429  0.076891445 
    3330    151.35567    19.544692   -516.89879    1041.3909    1041.3909  0.071872395 
    3340    150.25733    19.402862   -516.74986    1058.0781    1058.0781  0.069788594 
    3350    149.66172     19.32595   -516.66704    998.55457    998.55457  0.070365021 
    3360    145.73463    18.818842   -516.15353    973.49128    973.49128  0.072455738 
    3370    144.42873    18.650209   -515.97911    973.83293    973.83293  0.072530169 
    3380    149.98411    19.367581   -516.68724    1014.6957    1014.6957  0.068223025 
    3390    151.03898    19.503798   -516.81393    1041.0688    1041.0688  0.063573087 
    3400     150.9281    19.489479   -516.80184      1035.79      1035.79  0.062111546 
    3410    150.04648    19.375635   -516.68713     1004.731     1004.731  0.063640429 
    3420    146.75759    18.950937    -516.2426    1030.9103    1030.9103  0.065056587 
    3430    154.10465     19.89967   -517.20196    1050.7427    1050.7427  0.065805314 
    3440    152.11912    19.643276    -516.9411    1006.4604    1006.4604  0.070726334 
    3450    143.87395    18.578571   -515.85689     952.8315     952.8315   0.07696303 
    3460    145.20415    18.750341   -516.03511    958.92218    958.92218    0.0787101 
    3470    147.78103    19.083095   -516.37704    983.43669    983.43669  0.074479033 
    3480    150.02534    19.372905   -516.66959    1039.4781    1039.4781  0.069100748 
    3490    156.21348    20.171985   -517.47097    1011.3414    1011.3414  0.068092472 
    3500    144.34307    18.639148   -515.92946    1022.2229    1022.2229  0.073002822 
    3510    146.78242    18.954143   -516.24014    976.90949    976.90949  0.074861671 
    3520    146.30424    18.892397   -516.16894    965.11378    965.11378   0.07201227 
    3530    149.97463    19.366357   -516.64963    992.49588    992.49588  0.065695694 
    3540    153.41144    19.810155   -517.09979     1054.454     1054.454  0.060514735 
    3550    151.66526    19.584669   -516.85525    1054.3256    1054.3256  0.059134565 
    3560    152.00928    19.629093   -516.89968    1049.2325    1049.2325  0.061279485 
    3570    152.24119     19.65904   -516.93174    1016.2571    1016.2571  0.066964045 
    3580    145.23051    18.753744   -516.04386    997.00311    997.00311  0.075724337 
    3590    144.36204    18.641598    -515.9179    964.26574    964.26574  0.080461043 
    3600    146.49416    18.916921   -516.19536    937.64611    937.64611  0.079476058 
    3610    146.49461    18.916978   -516.16672    990.67917    990.67917  0.073425581 
    3620    155.62309    20.095747   -517.33448    1072.0661    1072.0661  0.065161174 
    3630    155.33044    20.057958   -517.29103    1064.2888    1064.2888  0.063500804 
    3640    146.45927    18.912415   -516.13115    1014.3914    1014.3914  0.067226903 
    3650    145.90998    18.841485   -516.07226    964.26078    964.26078  0.070245679 
    3660    149.01877    19.242925    -516.4784    976.34457    976.34457  0.069893093 
    3670    148.51864    19.178344   -516.43257    1033.0795    1033.0795  0.068309835 
    3680    152.63525    19.709925   -516.97918     1032.108     1032.108  0.067863799 
    3690    151.29516    19.536878   -516.78122    1012.4878    1012.4878  0.070224195 
    3700    142.47217    18.397557   -515.61167    1017.9343    1017.9343  0.074724166 
    3710    149.83753    19.348653   -516.56633    947.18224    947.18224  0.073533642 
    3720     145.5753    18.798268   -516.00935    1011.2261    1011.2261  0.069950301 
    3730    156.95164    20.267304   -517.47915    1031.3461    1031.3461  0.065359984 
    3740    150.27091    19.404615   -516.60092    998.37949    998.37949  0.066094971 
    3750    142.86621     18.44844   -515.62967    1027.8611    1027.8611  0.068324175 
    3760    152.75436    19.725306   -516.92361    1004.0866    1004.0866  0.066266276 
    3770    153.75534    19.854563   -517.04398    1033.4776    1033.4776  0.066649891 
    3780    144.84814    18.704368   -515.88157    1018.3942    1018.3942  0.072159414 
    3790    151.94227    19.620439   -516.80133    973.65469    973.65469  0.074405229 
    3800    143.82459    18.572196   -515.74589    1002.0828    1002.0828   0.07586435 
    3810    153.04678    19.763066   -516.92807    996.20386    996.20386  0.074105751 
    3820    147.23862    19.013053   -516.15517    988.37495    988.37495   0.07412746 
    3830    146.65434    18.937604   -516.08003    1032.1628    1032.1628   0.07167127 
    3840    154.65808    19.971135   -517.12118    1017.0613    1017.0613  0.067515237 
    3850    147.66682    19.068348   -516.21476    1021.7912    1021.7912  0.067586206 
    3860    151.65646    19.583533   -516.71117    999.10489    999.10489  0.067313738 
    3870    148.69454    19.201058   -516.31502    996.95144    996.95144   0.06751701 
    3880    150.77915    19.470245   -516.59353     1002.607     1002.607  0.066583169 
    3890    150.15571     19.38974   -516.51498    1007.7065    1007.7065  0.066658263 
    3900    151.72238    19.592045   -516.71978    1011.4868    1011.4868  0.068318153 
    3910     148.1873    19.135558   -516.27014    992.09304    992.09304  0.071609956 
    3920    149.12572    19.256736   -516.39078    963.61663    963.61663  0.073751278 
    3930    147.64665    19.065742   -516.19287    955.89133    955.89133  0.074945288 
    3940    148.08194    19.121951    -516.2525      985.506      985.506   0.07379074 
    3950    151.79058    19.600852   -516.71996    1037.2465    1037.2465  0.071119038 
    3960    154.80456     19.99005   -517.11078    1033.9451    1033.9451  0.070471121 
    3970    149.53615    19.309736   -516.45284    987.99179    987.99179  0.074771209 
    3980    144.29942    18.633512   -515.77387    934.10785    934.10785  0.078183703 
    3990    146.84246    18.961897   -516.09439    942.84808    942.84808  0.075850513 
    4000    147.80617    19.086342   -516.22079    1013.2819    1013.2819  0.070148885 
    4010    152.73392    19.722667   -516.84952     1012.946     1012.946  0.063944247 
    4020    152.79958    19.731145   -516.86813    1000.0749    1000.0749   0.06136243 
    4030    147.72338    19.075651   -516.21183    1032.9602    1032.9602  0.061351829 
    4040    155.49788    20.079578    -517.2108    1021.0816    1021.0816  0.061187246 
    4050    150.29051    19.407147   -516.53815    1000.3996    1000.3996  0.066582562 
    4060    147.67998    19.070047   -516.21062    958.09957    958.09957  0.073113528 
    4070    145.56011    18.796306   -515.93621    973.16831    973.16831   0.07722867 
    4080    151.13695    19.516448   -516.66239    982.08788    982.08788  0.077731095 
    4090    148.17874    19.134452   -516.26262    970.66296    970.66296  0.078138345 
    4100     151.1151    19.513626   -516.62888    986.29427    986.29427  0.077652958 
    4110    147.56368    19.055029    -516.1754     976.5957     976.5957   0.07799619 
    4120    147.77717    19.082597   -516.18295    978.61001    978.61001  0.075748282 
    4130    147.39381    19.033094   -516.14067    996.97517    996.97517  0.070962164 
    4140    152.99206    19.756001   -516.86158    980.46604    980.46604  0.065482694 
    4150    150.45772    19.428739   -516.52615     1001.082     1001.082  0.061875642 
    4160    150.72123    19.462766   -516.54059    1006.8713    1006.8713  0.058148629 
    4170    155.58667    20.091044   -517.17845     1022.795     1022.795  0.056535456 
    4180    155.50288    20.080225   -517.15775    1039.4842    1039.4842  0.060422044 
    4190    145.89605    18.839686   -515.90187    1025.9736    1025.9736  0.069623696 
    4200    150.28443    19.406361    -516.4861    941.40066    941.40066  0.077065361 
    4210    146.45535    18.911909   -515.98766    943.44697    943.44697  0.082179456 
    4220    142.67356    18.423563   -515.49152    968.01134    968.01134  0.082408122 
    4230    153.59995    19.834497   -516.91431    996.53265    996.53265  0.077484973 
    4240    148.36545    19.158562   -516.22991    1031.9973    1031.9973  0.073235254 
    4250     151.5232    19.566324   -516.65738    1011.2933    1011.2933  0.070268306 
    4260    150.79439    19.472213   -516.56878    986.87568    986.87568  0.068746946 
    4270    143.69262    18.555156   -515.66355    1010.6443    1010.6443   0.06725658 
    4280    157.64495    20.356832   -517.46678     993.1555     993.1555  0.063163611 
    4290    149.21676    19.268492   -516.36859    1022.2739    1022.2739  0.062587902 
    4300    151.61329    19.577959   -516.68911    985.41143    985.41143  0.063919636 
    4310    150.81906    19.475399    -516.6042    972.87965    972.87965  0.066917281 
    4320    145.23528     18.75436   -515.86602    984.47498    984.47498  0.068805611 
    4330    151.31683    19.539676   -516.64426    988.42339    988.42339  0.068399079 
    4340    151.95987    19.622713   -516.71166    1008.0214    1008.0214   0.06802496 
    4350    152.06104    19.635777    -516.6988    1034.8148    1034.8148  0.070228712 
    4360    149.87869    19.353967    -516.4168    972.98412    972.98412  0.076809327 
    4370    141.80107    18.310898   -515.34733    933.34967    933.34967   0.08127478 
    4380    148.29405    19.149342   -516.19511    933.60964    933.60964  0.077588362 
    4390    152.53421    19.696877   -516.74045     1018.599     1018.599  0.071646675 
    4400     153.2622    19.790884   -516.84936    1048.9302    1048.9302  0.068384618 
    4410    150.73255    19.464227   -516.52151    978.81028    978.81028  0.069537662 
    4420    145.87611    18.837111   -515.88901    945.30747    945.30747  0.071554147 
    4430    146.36871    18.900721    -515.9602    960.67259    960.67259  0.067857143 
    4440    152.90941    19.745327   -516.80799    1045.2532    1045.2532  0.059731041 
    4450    158.70174    20.493296   -517.56376    1069.8892    1069.8892  0.055355719 
    4460    152.95535     19.75126   -516.80834    1038.5784    1038.5784  0.059389919 
    4470    149.24186    19.271733   -516.33271    995.36142    995.36142   0.06783297 
    4480    143.38883    18.515927   -515.57392    963.84918    963.84918  0.075062598 
    4490    148.82388    19.217759   -516.26946    986.37201    986.37201  0.076460454 
    4500    151.27725    19.534565   -516.57962    967.49774    967.49774  0.077447068 
    4510    145.91686    18.842373   -515.88609    952.26133    952.26133  0.079162746 
    4520     148.6087    19.189973   -516.23406    946.16509    946.16509  0.077316478 
    4530     148.1401    19.129462   -516.17275    981.85287    981.85287  0.073606214 
    4540    153.89467    19.872555   -516.92787    982.27854    982.27854  0.068771533 
    4550    148.39006     19.16174   -516.21693    1008.1879    1008.1879  0.066526349 
    4560    151.05293    19.505598   -516.56835    1011.3702    1011.3702   0.06325951 
    4570    152.85685     19.73854   -516.81435    1003.7443    1003.7443  0.061665371 
    4580    150.74356    19.465649   -516.55694    977.50657    977.50657  0.063354455 
    4590    149.54048    19.310294   -516.40603    990.21413    990.21413  0.067376593 
    4600    149.77355    19.340391    -516.4351    980.59862    980.59862   0.07109417 
    4610     146.5711    18.926856   -515.99662    970.77322    970.77322  0.072980351 
    4620    151.50989    19.564606    -516.6162    979.01715    979.01715  0.071897128 
    4630    151.47803    19.560492   -516.59716    981.46546    981.46546   0.07194701 
    4640    149.35745     19.28666   -516.32358    968.27934    968.27934  0.073689092 
    4650    143.74507    18.561928   -515.60234    941.97686    941.97686  0.073866807 
    4660    153.43791    19.813573   -516.85488    957.73557    957.73557  0.069278423 
    4670    151.85478    19.609143    -516.6372      1032.48      1032.48  0.066253945 
    4680    152.55722    19.699849   -516.73242    1035.1733    1035.1733  0.067183474 
    4690    150.37201    19.417671   -516.44423    951.66712    951.66712  0.072318746 
    4700    141.90034    18.323716   -515.32997    928.83539    928.83539  0.076374528 
    4710    150.08547     19.38067   -516.38694    955.83717    955.83717  0.072783291 
    4720    154.13785    19.903957   -516.88906    1027.7404    1027.7404  0.067037845 
    4730    151.95771    19.622433   -516.59757      1041.57      1041.57  0.065528904 
    4740    152.20558    19.654441   -516.64059    989.68142    989.68142  0.067492802 
    4750    148.02036       19.114   -516.09475     987.0267     987.0267  0.070312937 
    4760    148.97995    19.237913   -516.20496     991.5146     991.5146  0.070940733 
    4770    149.23275    19.270558   -516.24415    1011.8266    1011.8266   0.06963731 
    4780    154.17778    19.909113   -516.87854    987.17055    987.17055  0.068032706 
    4790    149.00008    19.240512   -516.20748    952.84765    952.84765  0.069934736 
    4800    148.79382    19.213878    -516.1752    969.59076    969.59076  0.071141952 
    4810    149.94992    19.363165   -516.30251    978.73701    978.73701  0.071259304 
    4820    154.31358    19.926649   -516.86027    969.26937    969.26937  0.070989307 
    4830    148.72959    19.205584   -516.14327    949.10277    949.10277  0.074123784 
    4840    146.37429    18.901441   -515.84417    907.80425    907.80425  0.076467118 
    4850    149.48713    19.303405   -516.23703    944.03579    944.03579  0.072931193 
    4860    153.66619    19.843051   -516.77241    1025.4778    1025.4778    0.0690283 
    4870    154.41927    19.940297   -516.86545     971.7971     971.7971  0.068970515 
    4880    146.85137    18.963047   -515.86714    961.82643    961.82643   0.07097748 
    4890    148.89895    19.227454   -516.12501    944.78556    944.78556  0.071102441 
    4900    154.67299     19.97306   -516.86937    965.30033    965.30033   0.07070624 
    4910    148.54965    19.182348   -516.06788    966.89339    966.89339  0.073278504 
    4920     146.1131    18.867714    -515.7528    910.06638    910.06638  0.074714123 
    4930    150.71651    19.462157   -516.33724    932.60837    932.60837  0.071336539 
    4940     149.4575    19.299579   -516.18114    988.41876    988.41876  0.066844676 
    4950    160.50336    20.725941   -517.59986      1022.01      1022.01  0.063533505 
    4960    150.30834    19.409449   -516.29476    1007.6433    1007.6433  0.068044929 
    4970    146.26711    18.887602   -515.77509    929.91197    929.91197  0.074290976 
    4980    148.66129    19.196764   -516.08226    907.78483    907.78483  0.076704018 
    4990    148.69709    19.201387   -516.09979    956.70348    956.70348  0.076136793 
    5000    151.12208    19.514528   -516.41485     979.2229     979.2229  0.075144364 
    5010    152.39126    19.678418   -516.59246    960.01164    960.01164  0.075286399 
    5020    147.01203    18.983794   -515.90499    933.50414    933.50414  0.076164342 
    5030    150.12833    19.386204   -516.30721    949.56139    949.56139  0.075229302 
    5040     147.8015    19.085738   -515.97474    942.87906    942.87906  0.072941928 
    5050    150.59723    19.446753   -516.31581    981.46983    981.46983  0.066730859 
    5060    154.54735    19.956836   -516.82214    1020.0331    1020.0331  0.061045646 
    5070    155.46677    20.075562   -516.93828    994.08101    994.08101  0.059932239 
    5080    150.44548    19.427158   -516.28395    971.55079    971.55079  0.064682076 
    5090    149.17375    19.262938    -516.1118    949.31656    949.31656  0.070662317 
    5100    149.98409    19.367578   -516.21533     951.8807     951.8807  0.073649867 
    5110     152.3772    19.676603    -516.5145    964.92057    964.92057  0.075504099 
    5120    149.09653    19.252967   -516.09543    949.86311    949.86311  0.079373239 
    5130     147.3573    19.028379   -515.86424    922.01517    922.01517  0.081541183 
    5140    146.36304    18.899988   -515.71788    923.62727    923.62727  0.080156728 
    5150    151.17795    19.521743   -516.33828     959.1217     959.1217  0.074903213 
    5160    152.78997    19.729904   -516.54889    987.79646    987.79646  0.069227292 
    5170    153.91235    19.874838   -516.68839     979.0684     979.0684  0.066324517 
    5180    147.13743    18.999987   -515.81417    963.65903    963.65903  0.066973215 
    5190    151.25896    19.532203   -516.35389    938.98095    938.98095   0.06567512 
    5200    150.95946    19.493529   -516.32831    987.87355    987.87355  0.064792304 
    5210    152.20939    19.654934   -516.48094     1000.936     1000.936  0.064096646 
    5220    156.65037    20.228401   -517.06603     1007.505     1007.505  0.065733516 
    5230    147.05478    18.989314   -515.82936     942.9272     942.9272  0.072692068 
    5240    148.25946    19.144875   -516.00497    898.93216    898.93216  0.076269725 
    5250    149.26284    19.274442     -516.144    955.01776    955.01776  0.075364017 
    5260    154.44058    19.943049    -516.8091    978.26851    978.26851  0.073277231 
    5270    152.23014    19.657612   -516.51521    962.69008    962.69008  0.075197217 
    5280    145.57792    18.798606   -515.65686    916.53448    916.53448  0.078605903 
    5290    149.83535    19.348371   -516.21374    938.09867    938.09867  0.077449607 
    5300    150.51448    19.436068    -516.3124     956.7734     956.7734  0.074270918 
    5310    151.47225    19.559746   -516.41818    961.15383    961.15383  0.071346788 
    5320     152.3301     19.67052   -516.53932     929.8007     929.8007   0.07000711 
    5330    144.11965    18.610298   -515.46832    964.57736    964.57736  0.069837341 
    5340    152.89806    19.743862    -516.6092    947.96718    947.96718  0.064352192 
    5350    152.75721    19.725674   -516.59852    986.73537    986.73537  0.060745256 
    5360    157.00841    20.274635   -517.15664    995.49614    995.49614  0.061433946 
    5370    150.07423    19.379218   -516.25953    972.13466    972.13466  0.068429808 
    5380     148.5714    19.185157   -516.05775    902.75608    902.75608  0.075082496 
    5390    147.58649    19.057974   -515.92198    924.36139    924.36139  0.078014802 
    5400    154.69677     19.97613    -516.8435    945.03298    945.03298  0.078858408 
    5410    145.65715    18.808837   -515.65884    939.32131    939.32131  0.081932614 
    5420    149.60862    19.319093   -516.17929    921.78782    921.78782  0.081365699 
    5430    146.63084     18.93457   -515.80249    929.57867    929.57867  0.079363386 
    5440    151.97216    19.624299   -516.47847     932.5622     932.5622  0.074112562 
    5450    149.85884    19.351404   -516.18963    963.00757    963.00757  0.070129286 
    5460    152.71085    19.719687   -516.55313    961.42316    961.42316  0.066195219 
    5470    149.96078    19.364569   -516.19525    992.84478    992.84478  0.064134897 
    5480    156.05007    20.150884   -517.00065    953.67766    953.67766  0.063115244 
    5490    148.01167    19.112877   -515.94694    969.42935    969.42935   0.06559928 
    5500    152.47096     19.68871   -516.51743    943.85334    943.85334   0.06662348 
    5510    150.94781    19.492025   -516.31169    931.14915    931.14915   0.06993047 
    5520    149.76697    19.339541   -516.15811    949.35772    949.35772  0.073964907 
    5530     151.0386    19.503748   -516.33656    950.66047    950.66047  0.077851764 
    5540    148.87126    19.223877    -516.0556    916.45927    916.45927  0.082060415 
    5550    143.75215    18.562842   -515.39662    902.96063    902.96063  0.083150642 
    5560    151.20247    19.524908   -516.37216    931.47623    931.47623  0.077980357 
    5570    151.65168    19.582915   -516.43551    971.57081    971.57081  0.072015776 
    5580    153.85614     19.86758   -516.72193    982.85991    982.85991  0.067658165 
    5590    153.02583    19.760361   -516.61338      950.481      950.481  0.067370592 
    5600    148.27019     19.14626    -515.9982    934.76144    934.76144  0.070295394 
    5610    146.17056    18.875133   -515.70845    910.60577    910.60577   0.07126975 
    5620    154.62593    19.966983   -516.80148    929.87828    929.87828   0.06875448 
    5630    151.06247     19.50683   -516.35352    966.06018    966.06018  0.069167555 
    5640    148.47668    19.172925   -515.99233    962.23389    962.23389  0.071126733 
    5650    152.75027    19.724778   -516.55088    960.11191    960.11191  0.072152246 
    5660    146.79986    18.956396    -515.7891    958.29721    958.29721    0.0737823 
    5670    150.20434    19.396019   -516.21989    938.66652    938.66652  0.072514784 
    5680    155.52682    20.083315   -516.91803    970.38622    970.38622  0.070398333 
    5690    149.42002    19.294739   -516.11173      983.563      983.563  0.072596594 
    5700    152.08035     19.63827    -516.4475    927.35789    927.35789  0.075119527 
    5710    147.75073    19.079183   -515.89205    906.96079    906.96079  0.077045093 
    5720    147.07458    18.991871    -515.8006    915.85414    915.85414  0.076173041 
    5730    154.95449    20.009411   -516.82049    976.86251    976.86251  0.071143957 
    5740    152.44321    19.685127   -516.49649    997.20893    997.20893  0.068754547 
    5750    152.91211    19.745676   -516.57394    943.62238    943.62238  0.070208725 
    5760     149.1129    19.255081   -516.06874     916.0414     916.0414  0.072983262 
    5770    143.55174    18.536964   -515.33846    912.72358    912.72358  0.072835593 
    5780     155.6434     20.09837     -516.907    974.90309    974.90309  0.067966472 
    5790    153.43967      19.8138    -516.6121    981.38643    981.38643  0.066902444 
    5800    149.34678    19.285282   -516.07017    951.39921    951.39921  0.069545581 
    5810    152.38921    19.678154     -516.468    936.81682    936.81682  0.072592618 
    5820    147.44817    19.040113   -515.81535    918.29129    918.29129  0.076379336 
    5830    151.50321    19.563743   -516.34276    903.66919    903.66919  0.077668466 
    5840    147.15881    19.002748     -515.786    940.93345    940.93345  0.077440484 
    5850    150.83448     19.47739   -516.29136    944.60924    944.60924  0.073102853 
    5860    154.38555    19.935943   -516.76548    983.63775    983.63775   0.06992402 
    5870    148.39227    19.162025   -515.98442    957.50315    957.50315  0.070435923 
    5880    152.51419    19.694292   -516.52412    914.12708    914.12708  0.070027568 
    5890    147.77396    19.082182   -515.90761    953.30095    953.30095  0.070488167 
    5900    156.36601    20.191681   -517.01186    951.55466    951.55466  0.069542192 
    5910    149.46543    19.300603   -516.11601    955.52825    955.52825  0.073088783 
    5920    151.92282    19.617928   -516.44458    892.38298    892.38298  0.076579393 
    5930    143.08995    18.477332   -515.29431    912.43506    912.43506  0.079430175 
    5940     152.8489    19.737514   -516.56262     942.2696     942.2696  0.075238862 
    5950    150.51414    19.436024   -516.27752    974.18207    974.18207  0.071264219 
    5960    151.48556    19.561464   -516.40456    958.00378    958.00378  0.068044157 
    5970    151.23595    19.529232    -516.3719     951.8418     951.8418  0.066027752 
    5980    151.10615    19.512471   -516.35233    955.73031    955.73031  0.065631091 
    5990    152.73805    19.723199   -516.57087    939.90359    939.90359  0.067457078 
    6000    152.71876    19.720708   -516.55794    921.15172    921.15172  0.071340347 
    6010    144.33847    18.638555   -515.46361    918.14939    918.14939  0.076420145 
    6020    155.70259    20.106013   -516.93292    941.66402    941.66402  0.076015819 
    6030    149.46724    19.300837    -516.1182    953.80746    953.80746  0.077727877 
    6040    147.21831     19.01043   -515.83429    881.70471    881.70471  0.079729426 
    6050    146.84585    18.962334   -515.79156    896.99947    896.99947  0.078469621 
    6060    149.18251     19.26407   -516.09859    963.15682    963.15682  0.071867618 
    6070    159.26357    20.565846   -517.41525    996.58139    996.58139  0.065236716 
    6080    152.05894    19.635505   -516.47657    986.60968    986.60968  0.066940186 
    6090    145.90735    18.841145   -515.68148    890.44649    890.44649  0.070641181 
    6100     150.4004    19.421337   -516.25628    874.61672    874.61672  0.070465802 
    6110    145.85561    18.834465   -515.65822    960.63348    960.63348  0.067393618 
    6120    162.15318    20.938984   -517.78098    985.09658    985.09658  0.062221861 
    6130    150.97373    19.495371   -516.33137    998.84304    998.84304  0.066980112 
    6140    149.90656    19.357567   -516.19762    916.46165    916.46165  0.074414887 
    6150    145.50452    18.789128   -515.63533      879.568      879.568  0.080909813 
    6160    145.18777    18.748225   -515.59923    897.04847    897.04847  0.081285872 
    6170    152.78644    19.729448   -516.56482    933.29214    933.29214  0.075803501 
    6180    152.14596    19.646742   -516.48328    982.93614    982.93614  0.072189432 
    6190    155.11606    20.030273   -516.87007    944.97975    944.97975  0.071838209 
    6200    147.08619     18.99337   -515.81979    930.82804    930.82804  0.074329378 
    6210    148.75043    19.208275    -516.0386    935.19595    935.19595  0.072889044 
    6220    152.22591    19.657067   -516.48235    963.71578    963.71578  0.068603523 
    6230    151.88095    19.612522   -516.43303    985.05595    985.05595   0.06643417 
    6240    151.14448     19.51742    -516.3377    933.31052    933.31052  0.067000439 
    6250    149.41129    19.293612   -516.10876      930.361      930.361  0.067970285 
    6260    148.69324     19.20089   -515.99832     955.7057     955.7057  0.068073407 
    6270    152.55974    19.700174   -516.48644    959.11466    959.11466  0.067347692 
    6280    150.83743    19.477771   -516.25912    953.52604    953.52604  0.067220925 
    6290    152.92196    19.746948   -516.52119    978.12576    978.12576  0.069599625 
    6300     153.9456    19.879131   -516.64732    948.80555    948.80555  0.074238683 
    6310    145.57181    18.797817   -515.54321    923.92134    923.92134     0.079958 
    6320    149.21666    19.268479   -516.02196    892.78839    892.78839  0.082817664 
    6330    149.05505     19.24761   -515.98038    920.32607    920.32607  0.080748333 
    6340    148.50901    19.177099   -515.90388    952.59979    952.59979  0.076121128 
    6350    157.96996    20.398801   -517.12996    947.66702    947.66702   0.07079897 
    6360    145.32655    18.766146   -515.49473    950.37965    950.37965   0.06886791 
    6370     152.6241    19.708485    -516.4615    968.48032    968.48032  0.064292811 
    6380     154.4978    19.950437   -516.68665    992.93163    992.93163  0.060901889 
    6390    148.85548     19.22184   -515.96194    992.52517    992.52517  0.061595057 
    6400    155.80135    20.118766   -516.87821    960.62267    960.62267  0.063509901 
    6410    147.97448    19.108076   -515.86387    937.92754    937.92754  0.068051701 
    6420    148.21572    19.139227   -515.89024    957.99091    957.99091  0.070543759 
    6430    158.27619    20.438344    -517.2046    978.88157    978.88157  0.071051225 
    6440    148.03379    19.115734   -515.88116    954.69502    954.69502  0.075648095 
    6450    151.31448    19.539373   -516.29678    938.42648    938.42648  0.079149342 
    6460    148.85676    19.222005   -515.99572    928.48734    928.48734  0.081525206 
    6470    145.07403    18.733537   -515.51142    940.20585    940.20585  0.080668207 
    6480    152.07345    19.637379   -516.41651    941.47873    941.47873  0.073672006 
    6490     152.3058    19.667382   -516.44049    969.75769    969.75769  0.065786733 
    6500    155.15721    20.035588   -516.79341    999.20523    999.20523  0.061457161 
    6510      151.456    19.557647    -516.3251    979.68209    979.68209  0.060493264 
    6520    154.95628    20.009641    -516.7885    984.45202    984.45202  0.061195698 
    6530    152.01702    19.630092   -516.40767    970.47753    970.47753  0.066375297 
    6540    148.32125    19.152854   -515.90849    939.56621    939.56621  0.071652592 
    6550    146.49169    18.916602   -515.69182    911.68622    911.68622  0.075160091 
    6560    149.69499    19.330247   -516.11148    934.32912    934.32912  0.074615773 
    6570    151.28821    19.535981    -516.3051    964.38773    964.38773  0.071741929 
    6580     154.8182    19.991812   -516.78506    979.52487    979.52487   0.07048099 
    6590    151.75167    19.595827   -516.37414    942.99133    942.99133  0.072334426 
    6600    148.25554    19.144369   -515.92216    939.03419    939.03419  0.074121442 
    6610    153.01814    19.759368   -516.54462    937.12643    937.12643  0.073757445 
    6620    150.71718    19.462243   -516.22706    926.63233    926.63233  0.074490711 
    6630    145.37634    18.772575   -515.53328    968.73747    968.73747  0.074608011 
    6640    153.28771    19.794177   -516.57633     945.3419     945.3419  0.070968769 
    6650    150.30423    19.408918   -516.18667    955.85471    955.85471  0.067734113 
    6660    156.03093    20.148412   -516.92375    992.30259    992.30259   0.06445777 
    6670    151.87303    19.611499   -516.38792    949.75981    949.75981  0.066484551 
    6680    147.98752    19.109759   -515.87623    941.77223    941.77223  0.068839364 
    6690      149.455    19.299257   -516.06914    934.56342    934.56342  0.069534654 
    6700     151.3568    19.544837   -516.31763    940.22291    940.22291  0.070356178 
    6710    151.00425    19.499312   -516.28479    958.36938    958.36938    0.0706863 
    6720    152.90152    19.744309   -516.53845    932.81902    932.81902  0.071878419 
    6730    150.32242    19.411267   -516.19582    945.10825    945.10825  0.073777727 
    6740    149.39053    19.290931   -516.09521    938.64841    938.64841  0.075671165 
    6750    148.82804    19.218296   -516.01891    920.53112    920.53112  0.077181316 
    6760    147.72248    19.075534   -515.87187    936.27002    936.27002  0.075465703 
    6770    151.21938    19.527092   -516.33259    947.82163    947.82163  0.070568206 
    6780    155.61422    20.094601   -516.89938    994.34481    994.34481  0.065245694 
    6790    150.99329    19.497897   -516.29672    972.74584    972.74584  0.064365047 
    6800    153.51793    19.823906   -516.61014     945.3544     945.3544  0.065363781 
    6810    148.64826    19.195081   -515.97486    969.01201    969.01201  0.067895414 
    6820    155.11609    20.030278   -516.81723      960.281      960.281  0.069023731 
    6830    149.50186    19.305307    -516.0921    950.08193    950.08193  0.072323513 
    6840    149.68308    19.328708    -516.1038    919.44943    919.44943  0.073861864 
    6850    147.94557    19.104342   -515.86812    959.73118    959.73118  0.073943104 
    6860     157.0258    20.276881    -517.0311    948.56699    948.56699  0.072490446 
    6870    145.32518    18.765969   -515.50707    972.32169    972.32169  0.073378661 
    6880    151.14756    19.517819   -516.27966    946.80039    946.80039  0.070206153 
    6890    153.36485    19.804138   -516.55568    975.17631    975.17631  0.066890619 
    6900    151.20198    19.524845   -516.27375    967.63283    967.63283  0.066385845 
    6910    153.20665     19.78371   -516.51708    968.41139    968.41139  0.066938794 
    6920    152.65456    19.712419   -516.44998    966.11354    966.11354  0.068889001 
    6930    149.04455    19.246254   -515.98274     924.3359     924.3359  0.074045096 
    6940    148.40709    19.163939   -515.90503    908.23883    908.23883  0.077296912 
    6950    145.05366    18.730907   -515.46412    943.11966    943.11966  0.076815521 
    6960    152.51125    19.693912   -516.44245    965.41379    965.41379    0.0722051 
    6970     154.3121    19.926459   -516.67613    963.49185    963.49185  0.068148033 
    6980    154.77299    19.985973   -516.72912    943.84769    943.84769  0.067773091 
    6990     147.4581    19.041395   -515.78181    957.63664    957.63664  0.069960133 
    7000    150.82209     19.47579   -516.20696    936.09767    936.09767  0.069982007 
    7010    151.25661      19.5319   -516.25902    916.93903    916.93903  0.070101774 
    7020    148.40989      19.1643   -515.88218    960.09136    960.09136  0.069130395 
    7030    155.44059    20.072182   -516.77783    958.23399    958.23399  0.067194262 
    7040     152.2339    19.658098   -516.35412    952.48141    952.48141  0.069497799 
    7050    149.91371     19.35849   -516.06889    931.10153    931.10153  0.072125828 
    7060    151.68795    19.587599    -516.2922    946.78961    946.78961  0.074380885 
    7070    148.12984    19.128137   -515.84757    930.89368    930.89368  0.077308691 
    7080    149.85126    19.350426   -516.05986    924.40431    924.40431  0.076871228 
    7090    149.72587    19.334234   -516.04042    934.35727    934.35727  0.074243253 
    7100    152.95302    19.750958   -516.46127    931.51168    931.51168  0.071563813 
    7110    152.19531    19.653115    -516.3564    931.42235    931.42235  0.068886034 
    7120    151.26092    19.532457   -516.21317    966.89868    966.89868  0.065364306 
    7130    155.73365    20.110024   -516.78972    979.68028    979.68028  0.063844573 
    7140    152.58629    19.703603   -516.40035    974.69498    974.69498   0.06673924 
    7150    148.45149    19.169672   -515.85355    936.42637    936.42637  0.070514447 
    7160    148.94175     19.23298   -515.92734    888.57099    888.57099   0.07251373 
    7170    152.08094    19.638346   -516.33266    934.59951    934.59951  0.070503249 
    7180    148.85648    19.221968   -515.92469    986.43522    986.43522  0.068604527 
    7190    156.76226     20.24285   -516.96458    989.03323    989.03323  0.067985206 
    7200     149.4244    19.295304   -516.02825    959.95949    959.95949  0.070678607 
    7210    150.93107    19.489863   -516.22331    928.54567    928.54567  0.073672925 
    7220    152.01383     19.62968   -516.37124    891.26753    891.26753  0.076394006 
    7230    145.29417    18.761965   -515.48574    910.10289    910.10289   0.07819596 
    7240     153.9175    19.875503   -516.61771     936.5687     936.5687  0.076201081 
    7250      148.982    19.238178   -515.98404    956.64717    956.64717  0.074348187 
    7260    149.25939    19.273997   -516.01937    957.19052    957.19052  0.071658286 
    7270     152.7011    19.718428    -516.4789    914.87221    914.87221  0.067467798 
    7280    149.46957    19.301138   -516.06232    976.48209    976.48209  0.063366116 
    7290     158.7928    20.505055   -517.27179    962.39999    962.39999  0.059728438 
    7300     151.6531    19.583099   -516.34513    938.39229    938.39229  0.062471718 
    7310    146.00314    18.853515   -515.60969    917.91873    917.91873  0.066711159 
    7320     155.7979    20.118321    -516.8817    922.10349    922.10349  0.068189096 
    7330    148.56671     19.18455   -515.93938     952.8753     952.8753  0.071932493 
    7340    152.70255    19.718616   -516.46906    921.19551    921.19551  0.074993645 
    7350    150.80621    19.473739   -516.21815    934.34343    934.34343   0.07831504 
    7360    148.56249    19.184005   -515.93706    938.20716    938.20716   0.08022667 
    7370    153.06468    19.765378   -516.53125    903.61322    903.61322   0.08104373 
    7380    143.90732     18.58288   -515.32298    918.31904    918.31904  0.080311567 
    7390    147.32424    19.024109   -515.76504    908.07582    908.07582  0.072347008 
    7400    157.11717    20.288679   -517.02266      940.628      940.628  0.061881708 
    7410    155.24023    20.046308   -516.78028    996.90207    996.90207  0.057191515 
    7420    152.26783    19.662479   -516.38519    975.22329    975.22329  0.059531073 
    7430    152.69327    19.717417   -516.44395     926.8177     926.8177  0.063995663 
    7440    147.55016    19.053283   -515.77445     934.4095     934.4095  0.067922525 
    7450    154.21931    19.914475   -516.63656    937.57389    937.57389  0.068783066 
    7460    152.97983    19.754421   -516.48775    954.44122    954.44122  0.071340488 
    7470    149.45748    19.299577   -516.02152    914.61983    914.61983  0.076614156 
    7480    147.82275    19.088483   -515.80499    868.07947    868.07947  0.079555857 
    7490    146.45758    18.912197   -515.62253    926.74258    926.74258  0.077811876 
    7500    156.05793    20.151899   -516.88051    944.43419    944.43419  0.072556952 
    7510    151.36515    19.545916   -516.27048    960.14177    960.14177  0.071643531 
    7520    152.74741    19.724408   -516.43526    933.29102    933.29102   0.07283735 
    7530    147.07345    18.991725   -515.70193    878.89556    878.89556  0.074191883 
    7540    152.99022    19.755762   -516.47751    905.29468    905.29468  0.070643458 
    7550    149.43538    19.296723   -516.01333    939.19995    939.19995  0.067823268 
    7560     155.2966    20.053587   -516.77241    947.58265    947.58265  0.065032917 
    7570    151.54116    19.568644   -516.28805    933.91065    933.91065  0.064527406 
    7580     151.4511    19.557014   -516.26682     930.9753     930.9753  0.065441732 
    7590    153.09978     19.76991   -516.47209    924.37201    924.37201  0.068329783 
    7600    145.32045    18.765359   -515.45467    921.43456    921.43456    0.0722269 
    7610    152.04956    19.634294   -516.30185    918.64136    918.64136  0.072847565 
    7620    153.36654    19.804357   -516.45757    933.23373    933.23373  0.073562428 
    7630    150.13149    19.386612   -516.05399    917.85339    917.85339  0.075570328 
    7640    153.27198    19.792146   -516.47621    922.80075    922.80075  0.078604864 
    7650    144.78976     18.69683   -515.36877    875.62946    875.62946  0.081565562 
    7660    146.29112    18.890702   -515.55626    892.21982    892.21982  0.078150154 
    7670    156.29355    20.182325   -516.83432    942.12271    942.12271  0.070369512 
    7680    154.16309    19.907216   -516.54454    973.76642    973.76642   0.06549422 
    7690    155.05457    20.022334   -516.67457    940.81602    940.81602  0.065080483 
    7700    147.64043    19.064939   -515.72729    867.00088    867.00088  0.068108966 
    7710    147.02483    18.985446    -515.6404    890.40685    890.40685  0.067275931 
    7720    158.29677    20.441002   -517.11629    982.88923    982.88923  0.063697252 
    7730    157.13595    20.291105   -516.96649    954.51271    954.51271  0.066084243 
    7740    144.88235    18.708786   -515.38809    905.68374    905.68374  0.073561343 
    7750    149.08447    19.251409    -515.9429     870.6649     870.6649  0.075961423 
    7760    149.94086    19.361996   -516.05171    929.79335    929.79335  0.075238586 
    7770    157.52533    20.341386   -517.04099    945.36497    945.36497  0.074167341 
    7780    145.51526    18.790514   -515.46822     897.1934     897.1934  0.077520153 
    7790    148.85111    19.221275    -515.9017    879.72305    879.72305  0.077172543 
    7800     148.8838    19.225497   -515.91689    914.76161    914.76161  0.073072668 
    7810    153.55277    19.828405   -516.53286    932.10109    932.10109  0.067669006 
    7820    153.21071    19.784234   -516.50471    945.86488    945.86488  0.065183567 
    7830    153.81395    19.862132   -516.57976    929.12857    929.12857  0.064612646 
    7840    150.93325    19.490144   -516.20242    943.62702    943.62702  0.067748378 
    7850    153.56882    19.830478   -516.53776    904.49542    904.49542  0.071796741 
    7860    146.19852    18.878744   -515.58053    884.31159    884.31159    0.0753439 
    7870    150.07614    19.379465   -516.08919     879.8949     879.8949  0.074546257 
    7880    151.89141    19.613873    -516.3149     923.2823     923.2823  0.071714526 
    7890    154.81472    19.991362   -516.71703    951.93182    951.93182  0.068817515 
    7900    153.27783    19.792902   -516.49649    927.79965    927.79965  0.070622709 
    7910    146.44294    18.910306   -515.59585    885.50442    885.50442  0.074161586 
    7920     148.2498    19.143628   -515.82618    883.93382    883.93382  0.073892148 
    7930    153.19616    19.782356    -516.4455     903.3057     903.3057  0.070836537 
    7940    150.64344     19.45272   -516.11062    915.74453    915.74453  0.068861564 
    7950    155.82738    20.122128   -516.79141    938.47589    938.47589  0.068585716 
    7960    151.30494    19.538141   -516.21039    887.04292    887.04292  0.071565317 
    7970    148.90016    19.227609   -515.89255    895.45234    895.45234  0.073631398 
    7980    151.08055    19.509166    -516.1597    898.40148    898.40148  0.073240158 
    7990    151.88764    19.613385   -516.26208    893.57527    893.57527  0.073051922 
    8000    149.37912    19.289458   -515.92826    917.98724    917.98724  0.073028128 
    8010    152.56154    19.700406   -516.32573    920.57319    920.57319  0.070168484 
    8020    150.72267    19.462952   -516.08422    916.23718    916.23718  0.068106556 
    8030    155.65564     20.09995   -516.71876    939.34471    939.34471   0.06715747 
    8040    150.81153    19.474427   -516.10315    896.48112    896.48112  0.069276476 
    8050    148.75771    19.209215    -515.8291    884.10382    884.10382   0.07193962 
    8060    152.24908    19.660058   -516.28191    929.99594    929.99594  0.071566342 
    8070    147.67239    19.069067   -515.68837    948.26556    948.26556   0.07126997 
    8080    157.15209    20.293189   -516.91993    898.15066    898.15066  0.070952048 
    8090    145.38529    18.773731   -515.37937    895.84259    895.84259  0.073270353 
    8100    152.82311    19.734183   -516.34087    923.54913    923.54913  0.071536551 
    8110    155.42789     20.07054   -516.65652    931.17923    931.17923  0.069870997 
    8120     148.8565    19.221972   -515.78818     908.6116     908.6116  0.071419739 
    8130    154.45535    19.944956   -516.51651    877.96766    877.96766  0.073606881 
    8140    145.46643    18.784209   -515.33347    863.12928    863.12928   0.07660934 
    8150    150.13826    19.387486   -515.94537     911.9021     911.9021  0.074646379 
    8160    156.08214    20.155025   -516.73347    919.88651    919.88651   0.07123086 
    8170    148.74164     19.20714   -515.77525    891.94747    891.94747  0.071105538 
    8180    154.40366    19.938281   -516.51024    891.10351    891.10351  0.070487231 
    8190    148.57789    19.185994   -515.75407    897.66179    897.66179  0.070650846 
    8200    154.87129    19.998666   -516.58122    910.76406    910.76406   0.06812986 
    8210    151.66282    19.584354   -516.15485    895.25165    895.25165  0.067835811 
    8220    148.61221    19.190426    -515.7404    911.63949    911.63949  0.068177149 
    8230    157.67905    20.361235   -516.91611    945.16559    945.16559  0.067911181 
    8240    152.50376    19.692946   -516.23913    910.22114    910.22114  0.072379006 
    8250    148.03324    19.115663   -515.66376    886.46439    886.46439  0.078855363 
    8260    150.70451    19.460606   -516.01928    838.72299    838.72299  0.082205658 
    8270    145.58462    18.799471   -515.34766    903.80863    903.80863  0.082448583 
    8280    154.20587    19.912741   -516.45221     905.8064     905.8064  0.078775279 
    8290    150.53939    19.439285   -515.95745    888.78023    888.78023   0.07551423 
    8300    149.22654    19.269755   -515.77256     912.2341     912.2341  0.069991552 
    8310    157.10878    20.287595   -516.79724    926.29592    926.29592  0.063946859 
    8320    155.17225     20.03753   -516.53648    959.51689    959.51689   0.06234782 
    8330    151.37375    19.547026   -516.04248    915.62416    915.62416  0.065005236 
    8340     152.2403    19.658925   -516.14955    885.70446    885.70446   0.06788195 
    8350    148.85656    19.221979   -515.69052     895.8711     895.8711  0.069469249 
    8360    154.78518    19.987547   -516.45222    926.40347    926.40347  0.069895327 
    8370    153.90104    19.873377   -516.33953     912.4123     912.4123  0.072393683 
    8380    149.83619    19.348479   -515.79278    902.17374    902.17374  0.077223007 
    8390    152.20333     19.65415   -516.10032    886.34913    886.34913  0.080650188 
    8400    147.20693    19.008961   -515.45292    868.59592    868.59592  0.082327334 
    8410    151.71472    19.591056   -516.03547    894.87834    894.87834  0.079778261 
    8420    150.93522    19.490399   -515.92778    944.24646    944.24646  0.075757024 
    8430    153.11695    19.772127   -516.20578    889.82769    889.82769  0.071599025 
    8440    154.49679    19.950308   -516.38847    914.89473    914.89473  0.068958074 
    8450    149.13199    19.257546   -515.70011    883.05185    883.05185  0.068477354 
    8460    153.53186    19.825705   -516.28042    909.41612    909.41612  0.066765183 
    8470    153.11056    19.771302   -516.21729    921.91826    921.91826  0.065991638 
    8480    151.07381    19.508295   -515.95082    914.79656    914.79656  0.067454336 
    8490    155.28968    20.052694   -516.50143    912.03352    912.03352  0.068319449 
    8500    149.69373    19.330084   -515.77127    921.81853    921.81853  0.071069276 
    8510    154.61095    19.965049     -516.407    883.39151    883.39151  0.073120406 
    8520    149.08466    19.251434   -515.69387    911.62665    911.62665  0.075709681 
    8530    151.31817    19.539849   -515.98456    916.57636    916.57636   0.07685288 
    8540    152.22961    19.657545   -516.11127    897.88912    897.88912  0.077377049 
    8550    151.03824    19.503701   -515.93374    885.42695    885.42695  0.077319217 
    8560    150.74898    19.466349   -515.89349    891.05882    891.05882   0.07667241 
    8570    152.82161     19.73399   -516.16645    914.95917    914.95917  0.074788237 
    8580    148.52827    19.179587   -515.60639    911.82126    911.82126  0.073291075 
    8590     153.1161    19.772017   -516.19123    914.17518    914.17518  0.070205717 
    8600    153.57553    19.831344   -516.24657    902.72099    902.72099   0.06760532 
    8610    153.79837    19.860119   -516.27177    920.73162    920.73162  0.065598786 
    8620    153.98269    19.883921   -516.29868    915.48155    915.48155  0.065277762 
    8630    152.13874     19.64581   -516.06306    905.05464    905.05464  0.066138746 
    8640    155.64209      20.0982    -516.5276    920.91837    920.91837  0.067644065 
    8650    153.28813    19.794232    -516.2131     895.6594     895.6594  0.072700196 
    8660    148.75286    19.208589   -515.63802    855.65143    855.65143  0.079386247 
    8670    146.66215    18.938613   -515.34463     841.2291     841.2291  0.083211596 
    8680    151.59038    19.575001   -515.97018    860.28209    860.28209  0.080994142 
    8690    151.05167    19.505436   -515.90388    896.61166    896.61166  0.078208439 
    8700    155.28221    20.051729   -516.45788    892.23203    892.23203  0.075912204 
    8710    149.98512    19.367711   -515.77091    890.77271    890.77271   0.07428853 
    8720     150.8149    19.474861    -515.8774    914.37338    914.37338  0.070353352 
    8730    155.98998    20.143124    -516.5354    910.07649    910.07649  0.065653235 
    8740    153.33503    19.800289   -516.19257    919.78724    919.78724  0.064809791 
    8750    153.56804    19.830377   -516.23424    871.72459    871.72459  0.066122492 
    8760     151.3739    19.547045   -515.94867    894.51348    894.51348   0.06778616 
    8770    152.45609     19.68679   -516.08689    914.73579    914.73579  0.070044111 
    8780    152.55058    19.698991   -516.09059    925.86346    925.86346   0.07322794 
    8790    151.26228    19.532633   -515.91775     893.3391     893.3391  0.076470283 
    8800    152.15663     19.64812   -516.02848     834.2034     834.2034  0.078731477 
    8810    149.67305    19.327413   -515.71008    852.17688    852.17688  0.079772937 
    8820     147.6959    19.072103   -515.46208    910.55812    910.55812  0.077799517 
    8830    158.45061    20.460868   -516.85602     909.9727     909.9727   0.07214017 
[...]
   97870    198.06258    25.575996   -509.54289     247.7148     247.7148   0.10928963 
   97880     192.3358    24.836491   -508.79848    284.52554    284.52554   0.10926705 
   97890     201.3487    26.000335   -509.94872    272.25321    272.25321   0.10754597 
   97900    196.68956    25.398697   -509.32972    266.88651    266.88651   0.10861446 
   97910     199.5241    25.764724   -509.70754    286.54115    286.54115   0.10920981 
   97920    197.66129    25.524177   -509.46963    253.98108    253.98108   0.11197532 
   97930    193.56426    24.995124   -508.95957    239.63172    239.63172   0.11557827 
   97940    197.37911    25.487739   -509.46031    216.76401    216.76401   0.11548643 
   97950     196.3838    25.359213   -509.32344    189.43619    189.43619   0.11596822 
   97960    193.39789    24.973641    -508.9503    224.23523    224.23523    0.1160859 
   97970    195.82514    25.287074   -509.27471    263.57673    263.57673   0.11319591 
   97980    199.90722    25.814196    -509.7867     277.4964     277.4964   0.10907825 
   97990    198.35216     25.61339   -509.57563    228.91637    228.91637   0.10714221 
   98000    193.33357    24.965334   -508.94019    256.56666    256.56666   0.10708637 
   98010    197.00336    25.439219    -509.4081    273.35775    273.35775   0.10421091 
   98020    197.30757      25.4785   -509.46727     270.2064     270.2064   0.10302513 
   98030     195.1627    25.201533   -509.18028    278.25464    278.25464   0.10450604 
   98040    200.87673     25.93939   -509.92481    246.19299    246.19299   0.10548211 
   98050    198.84818    25.677442   -509.66028    249.55407    249.55407   0.10882062 
   98060    191.78554    24.765436   -508.74545    242.26259    242.26259   0.11414085 
   98070    193.61348     25.00148   -508.98499    225.69145    225.69145   0.11537867 
   98080    200.99685    25.954901   -509.93517    266.03531    266.03531   0.11271035 
   98090    197.44397    25.496114   -509.48678    263.70879    263.70879   0.11349076 
   98100    198.83082      25.6752   -509.66816    270.02384    270.02384     0.116713 
   98110    188.55048     24.34769   -508.32337    203.56191    203.56191    0.1201039 
   98120    195.52964    25.248916   -509.24725    190.67629    190.67629   0.11601092 
   98130    195.32066    25.221929   -509.21289    286.91821    286.91821   0.10961668 
   98140    204.80053    26.446073   -510.44189    303.50035    303.50035   0.10325299 
   98150    197.42969    25.494271    -509.4862    289.48803    289.48803   0.10275077 
   98160    199.85507    25.807462   -509.81194    240.75282    240.75282   0.10518405 
   98170    194.63803    25.133781   -509.12223    228.45767    228.45767   0.11011734 
   98180    190.24868     24.56698    -508.5613    236.08369    236.08369   0.11225379 
   98190    200.09012    25.837815   -509.83876    230.94191    230.94191   0.10958034 
   98200    196.41061    25.362676   -509.34644    255.57898    255.57898    0.1093145 
   98210    196.57685    25.384143   -509.36344    237.47475    237.47475   0.10993483 
   98220    196.65539    25.394285   -509.36341     252.7185     252.7185   0.11108615 
   98230    194.87209    25.164005   -509.13538    228.96996    228.96996   0.11248046 
   98240    194.77493    25.151459   -509.12565    204.28865    204.28865   0.11310025 
   98250    199.14712    25.716044   -509.68718    228.59797    228.59797   0.11293587 
   98260    194.76868    25.150652   -509.09647    264.96508    264.96508   0.11312697 
   98270     198.4708     25.62871   -509.56603    259.88179    259.88179   0.11180319 
   98280    196.60558    25.387853   -509.31095    254.03303    254.03303   0.11134759 
   98290    199.56915    25.770542   -509.69134    254.13673    254.13673   0.11070565 
   98300    195.22598    25.209704   -509.13628    287.67421    287.67421   0.11134328 
   98310    201.98017    26.081879   -510.01995    242.05445    242.05445   0.11147021 
   98320    190.93816    24.656013   -508.59436     198.8983     198.8983   0.11406551 
   98330    195.95537    25.303891   -509.24131    255.06067    255.06067   0.11113208 
   98340    203.05138    26.220205   -510.16332    273.95613    273.95613   0.10733896 
   98350      198.345    25.612466   -509.55509    270.65137    270.65137   0.11006817 
   98360    195.28441    25.217249   -509.15499    234.52189    234.52189   0.11551661 
   98370    191.24422    24.695535   -508.65118    187.69414    187.69414    0.1165067 
   98380    195.99434    25.308923   -509.26638    265.01391    265.01391   0.11201533 
   98390    201.15001    25.974679   -509.92268    252.71359    252.71359   0.10911019 
   98400    192.17844    24.816172   -508.74829    276.08899    276.08899   0.11044084 
   98410    196.84195    25.418375   -509.37369    215.15257    215.15257   0.10986377 
   98420    200.11719    25.841309   -509.80951    227.92325    227.92325    0.1086456 
   98430     194.8389    25.159719   -509.10693    270.70336    270.70336   0.10979407 
   98440    199.99332    25.825315   -509.76893    256.51545    256.51545   0.11034307 
   98450    193.10805    24.936214   -508.86178    256.28356    256.28356   0.11230247 
   98460    198.54405    25.638169    -509.5938    204.09806    204.09806   0.11336834 
   98470     195.1049    25.194069   -509.15358    255.05081    255.05081    0.1137243 
   98480    197.51739    25.505595   -509.45723    227.75585    227.75585     0.111932 
   98490    200.55311    25.897601   -509.84059    241.46035    241.46035   0.11211816 
   98500    194.70947    25.143007   -509.07528    242.26847    242.26847   0.11389799 
   98510    193.06134    24.930181   -508.86155    195.13651    195.13651   0.11498511 
   98520    197.75597    25.536403   -509.45234    223.33311    223.33311   0.11263795 
   98530    195.45932    25.239835   -509.15214    265.52098    265.52098   0.10915111 
   98540    203.78409     26.31482    -510.2589    250.79674    250.79674   0.10676075 
   98550    188.19629    24.301953   -508.21562    257.80405    257.80405   0.10835692 
   98560    202.76338    26.183015   -510.11699    246.03154    246.03154   0.10584062 
   98570     197.3204    25.480158   -509.41188    283.25696    283.25696   0.10547128 
   98580    197.14916    25.458046   -509.39402    280.23975    280.23975    0.1059905 
   98590    201.95594    26.078749   -509.99619    195.36202    195.36202   0.10958164 
   98600    189.89561    24.521388   -508.42319    238.50901    238.50901   0.11636264 
   98610    193.88584     25.03665   -508.94263    175.44993    175.44993   0.11893256 
   98620    195.35691    25.226611   -509.13789     249.3726     249.3726   0.11597203 
   98630    201.95734     26.07893   -509.98837     267.9385     267.9385   0.11062402 
   98640    200.53666    25.895476   -509.81391     239.9761     239.9761   0.11136204 
   98650    192.30427    24.832421   -508.72386    254.81252    254.81252   0.11526947 
   98660    197.96242    25.563062   -509.46115    196.59862    196.59862   0.11603047 
   98670    194.14567    25.070202   -508.96127    245.58946    245.58946   0.11474985 
   98680    197.12164    25.454492    -509.3421    279.93212    279.93212   0.11031087 
   98690     201.7805    26.056095   -509.93438    229.48209    229.48209    0.1069372 
   98700    195.35041    25.225771   -509.09249     333.5061     333.5061   0.10608258 
   98710    198.61314     25.64709   -509.51155    279.43226    279.43226   0.10623315 
   98720    198.99013    25.695771   -509.54895    260.25579    260.25579   0.10875413 
   98730    195.88569    25.294893   -509.14069    249.19359    249.19359   0.11335165 
   98740    192.41651    24.846914   -508.70474    168.75774    168.75774   0.11654039 
   98750    200.78359    25.927363   -509.78534     257.7524     257.7524   0.11263553 
   98760     193.2285    24.951768   -508.81009    310.05721    310.05721   0.11153387 
   98770    200.88383    25.940307   -509.80318    268.24684    268.24684    0.1103249 
   98780    195.96624    25.305293   -509.15803    246.07807    246.07807   0.11087293 
   98790    195.03967    25.185645   -509.02119    237.30057    237.30057   0.11235382 
   98800    197.41439    25.492295   -509.32576    260.86546    260.86546   0.11275357 
   98810    197.61402    25.518073    -509.3681    290.69767    290.69767    0.1126471 
   98820    197.10963    25.452941   -509.29797    245.26385    245.26385    0.1130204 
   98830    198.28051    25.604138   -509.45872    202.10308    202.10308   0.11204112 
   98840    194.81675     25.15686   -509.00895     260.8273     260.8273   0.11121031 
   98850    201.86216     26.06664   -509.91253    259.72768    259.72768   0.10994795 
   98860    193.95102    25.045067   -508.89578    278.42739    278.42739   0.11158618 
   98870    198.89906    25.684012   -509.53743    240.07004    240.07004   0.11104879 
   98880    195.04567     25.18642   -509.05173    238.18164    238.18164   0.11261734 
   98890    198.51573    25.634512     -509.491     209.2792     209.2792   0.11314521 
   98900    196.47205    25.370609   -509.21845    255.54025    255.54025   0.11438225 
   98910    196.70131    25.400214   -509.25741     216.0073     216.0073   0.11580973 
   98920    193.61708    25.001944   -508.84971    240.98681    240.98681   0.11527167 
   98930    200.18604    25.850201   -509.70421    214.40476    214.40476   0.11162638 
   98940    197.65695    25.523617   -509.38717     285.5063     285.5063   0.10942179 
   98950    197.95278    25.561817   -509.44435    249.98325    249.98325   0.10888903 
   98960    196.70135    25.400219   -509.27191    228.74478    228.74478   0.10931085 
   98970    193.52929    24.990608   -508.84501     233.2865     233.2865      0.10777 
   98980    201.21377    25.982912   -509.84767    232.75836    232.75836   0.10658183 
   98990    197.91171    25.556514    -509.3943    261.39296    261.39296    0.1089256 
   99000     196.1321    25.326711    -509.1573    243.38741    243.38741   0.11170185 
   99010    197.46295    25.498565    -509.3291    245.68798    245.68798   0.11403157 
   99020    195.06347    25.188718   -509.00456    241.54896    241.54896   0.11444875 
   99030     197.5195    25.505867   -509.33262    243.18832    243.18832    0.1145449 
   99040    196.28989    25.347087   -509.17098     239.7385     239.7385   0.11451609 
   99050    195.28596    25.217448   -509.06361    238.60063    238.60063    0.1153715 
   99060    193.58128    24.997322   -508.84148    226.46971    226.46971   0.11375926 
   99070    198.59716    25.645026   -509.49844    283.69428    283.69428    0.1077565 
   99080    203.97764    26.339813   -510.19788    253.75414    253.75414   0.10520403 
   99090    192.42988    24.848641   -508.70527    241.63768    241.63768   0.10890785 
   99100    196.39219    25.360297   -509.21393     223.5393     223.5393   0.11133383 
   99110     192.3009    24.831986   -508.69286    197.55013    197.55013   0.11080656 
   99120    202.22696    26.113746   -509.95699    248.25055    248.25055    0.1043882 
   99130    199.72352    25.790475   -509.61718    309.67193    309.67193   0.10251422 
   99140    199.38143    25.746301   -509.57568    275.72017    275.72017   0.10604057 
   99150    195.48873    25.243633   -509.06763    232.37781    232.37781   0.11234834 
   99160    193.62251    25.002645   -508.82266    211.90313    211.90313   0.11692867 
   99170    195.06664    25.189128   -509.01899    265.74779    265.74779   0.11664141 
   99180    200.94533    25.948249    -509.7801    258.15157    258.15157   0.11382805 
   99190    195.00095    25.180645   -508.99688    272.18925    272.18925   0.11321358 
   99200    196.51861    25.376622   -509.19308    261.83746    261.83746   0.11195419 
   99210     197.5312    25.507379   -509.32791    244.18878    244.18878   0.10968637 
   99220    196.85368     25.41989   -509.22551     255.4674     255.4674   0.10774338 
   99230    198.88128    25.681716   -509.48156     241.4659     241.4659   0.10728602 
   99240    196.54375    25.379868   -509.15233    234.38508    234.38508   0.10676913 
   99250     198.1791    25.591042   -509.35702    272.16013    272.16013   0.10662604 
   99260    198.79611    25.670717   -509.43611    232.69461    232.69461    0.1080461 
   99270    192.10454    24.806629    -508.5794    250.43181    250.43181   0.10882433 
   99280    201.49149    26.018774   -509.82414    268.30276    268.30276   0.10708069 
   99290    199.16978     25.71897   -509.49591    282.92167    282.92167   0.10796493 
   99300    195.61075    25.259389   -509.03189    283.76659    283.76659   0.11002244 
   99310    199.02012    25.699644   -509.46287    254.82981    254.82981   0.11140271 
   99320    195.35045    25.225777   -508.97972    259.76038    259.76038   0.11261559 
   99330    195.40973    25.233431   -508.99497    269.56505    269.56505   0.11325364 
   99340    200.10927    25.840287   -509.58543    217.54256    217.54256   0.11247834 
   99350    187.41024     24.20045   -507.93931     261.3341     261.3341   0.11241719 
   99360    206.85835    26.711801   -510.47194    256.88364    256.88364   0.10746886 
   99370    196.28765    25.346798   -509.09133    299.21914    299.21914    0.1068556 
   99380    197.78278    25.539865   -509.32244    240.50957    240.50957   0.10802354 
   99390    199.04515    25.702877   -509.48595     251.6459     251.6459   0.10969429 
   99400    194.84253    25.160188   -508.91963    278.95439    278.95439   0.10973926 
   99410    201.50601     26.02065   -509.78459     270.9774     270.9774   0.10879955 
   99420    196.26058    25.343302   -509.07512     224.1353     224.1353   0.10988884 
   99430    191.32597    24.706092   -508.43459      269.257      269.257    0.1114396 
   99440    206.52016    26.668131   -510.41725    227.14515    227.14515   0.10971673 
   99450    191.18122    24.687399   -508.41209    307.14314    307.14314   0.11242204 
   99460    202.15809    26.104853   -509.84366    266.28725    266.28725   0.11171959 
   99470    195.27006    25.215395   -508.92192    275.69741    275.69741   0.11259573 
   99480    194.41264    25.104676   -508.81676    232.35895    232.35895    0.1116238 
   99490    200.23623    25.856681   -509.57451    249.53899    249.53899   0.10816656 
   99500    195.01417    25.182353   -508.88038    309.26095    309.26095   0.10602079 
   99510     200.6471    25.909737   -509.61971    283.77003    283.77003   0.10351663 
   99520     199.2304    25.726798   -509.43225    285.40376    285.40376   0.10366442 
   99530    195.89111    25.295592   -508.99853    269.14845    269.14845   0.10694048 
   99540    200.75228     25.92332   -509.61121    228.19543    228.19543   0.10959487 
   99550    193.39025    24.972654    -508.6467    294.83993    294.83993   0.11336163 
   99560    198.97274    25.693526   -509.38716    246.68135    246.68135    0.1140361 
   99570    196.26947     25.34445   -509.03446     271.1108     271.1108   0.11314917 
   99580    195.74095    25.276202   -508.95857    273.62897    273.62897   0.11167826 
   99590    201.82735    26.062144   -509.74147    304.11182    304.11182   0.11039266 
   99600    197.69227    25.528178   -509.21494    249.21689    249.21689   0.11196319 
   99610    192.79777    24.896147   -508.58076    210.78127    210.78127    0.1125682 
   99620    197.80766    25.543078   -509.24597    264.15221    264.15221   0.10881027 
   99630    200.14523     25.84493   -509.53998    279.06537    279.06537   0.10427193 
   99640    201.91593    26.073583   -509.76632    290.99387    290.99387   0.10261828 
   99650    200.43544    25.882406   -509.57787    285.74588    285.74588   0.10531423 
   99660    194.75783    25.149251   -508.84363    233.34199    233.34199   0.10881112 
   99670    193.02104    24.924978   -508.62855    197.54427    197.54427   0.11061917 
   99680      195.576    25.254902   -508.97283    232.04016    232.04016    0.1099107 
   99690    198.93619    25.688807   -509.38145    354.76108    354.76108   0.10708277 
   99700    203.20474    26.240008   -509.93636    310.81844    310.81844   0.10533072 
   99710    198.50452    25.633064   -509.33951     276.9713     276.9713   0.10875791 
   99720    196.36128    25.356305   -509.04461    217.02098    217.02098   0.11229465 
   99730    195.33034     25.22318   -508.92135     259.7979     259.7979   0.11464907 
   99740    198.89412    25.683374   -509.37571    282.61423    282.61423   0.11442858 
   99750    194.35516    25.097253   -508.77631    260.55656    260.55656   0.11393844 
   99760    201.40149    26.007152   -509.69995    210.51988    210.51988   0.11010081 
   99770    193.68319    25.010482   -508.69963    304.45968    304.45968    0.1072285 
   99780     206.6241    26.681553   -510.37933    270.19352    270.19352   0.10398525 
   99790    191.16971    24.685914   -508.36712    261.33654    261.33654   0.10656024 
   99800    198.48532    25.630585   -509.32033    239.02009    239.02009    0.1056903 
   99810    201.72867    26.049401   -509.75705    274.79924    274.79924   0.10447575 
   99820    200.47106    25.887006   -509.57336    307.06762    307.06762   0.10644666 
   99830    193.84843     25.03182   -508.72041    242.97638    242.97638   0.11115928 
   99840    193.17199     24.94447   -508.65231    195.90228    195.90228    0.1128373 
   99850      194.387    25.101365   -508.80818    252.56557    252.56557   0.10979321 
   99860    207.41744    26.783997   -510.48657    298.36903    298.36903   0.10336339 
   99870    198.68503    25.656374   -509.33981    279.67876    279.67876   0.10639517 
   99880    197.93641    25.559704   -509.26085    197.12385    197.12385   0.11359456 
   99890    188.45406    24.335239   -508.05274    199.89744    199.89744    0.1176461 
   99900    200.31878    25.867341   -509.58732    231.03535    231.03535   0.11271911 
   99910    198.50568    25.633214   -509.34534    275.01491    275.01491   0.10953386 
   99920    195.52427    25.248222   -508.95402     292.6836     292.6836   0.10779549 
   99930    203.39861    26.265043    -509.9839    252.86991    252.86991   0.10642731 
   99940    196.45247    25.368082   -509.07313    272.52226    272.52226   0.10926641 
   99950    194.09447     25.06359    -508.7741    236.50424    236.50424   0.11204858 
   99960    201.25216    25.987869   -509.68061    244.94173    244.94173   0.11103154 
   99970    194.67086     25.13802   -508.81753    231.77981    231.77981   0.11115897 
   99980    199.93021    25.817165   -509.50597    266.78642    266.78642   0.11134528 
   99990    194.18513    25.075298   -508.74971    267.59155    267.59155   0.11253528 
  100000    198.15222    25.587572   -509.27608    221.11198    221.11198   0.11162458 
Loop time of 47.8103 on 8 procs for 100000 steps with 1000 atoms

Performance: 903.571 ns/day, 0.027 hours/ns, 2091.601 timesteps/s
98.7% CPU use with 8 MPI tasks x no OpenMP threads

MPI task timing breakdown:
Section |  min time  |  avg time  |  max time  |%varavg| %total
---------------------------------------------------------------
Pair    | 30.607     | 32.866     | 33.873     |  17.6 | 68.74
Neigh   | 2.0542     | 2.2535     | 2.353      |   6.1 |  4.71
Comm    | 7.2901     | 8.5078     | 11.016     |  38.7 | 17.79
Output  | 2.8319     | 2.8521     | 2.982      |   2.9 |  5.97
Modify  | 1.1938     | 1.2182     | 1.2431     |   1.7 |  2.55
Other   |            | 0.1125     |            |       |  0.24

Nlocal:    125 ave 131 max 116 min
Histogram: 1 0 1 0 0 1 2 0 1 2
Nghost:    639 ave 651 max 631 min
Histogram: 1 1 2 0 1 1 0 1 0 1
Neighs:    0 ave 0 max 0 min
Histogram: 8 0 0 0 0 0 0 0 0 0
FullNghs:  3977 ave 4185 max 3652 min
Histogram: 1 0 1 0 0 1 2 0 1 2

Total # of neighbors = 31816
Ave neighs/atom = 31.816
Neighbor list builds = 10000
Dangerous builds not checked



Total wall time: 0:00:47
