
# Create simulation box of size 50 x 50 x 50 Angstrom
#
lattice	            sc 1
Lattice spacing in x,y,z = 1.0000000 1.0000000 1.0000000
region 	            all block 0 50 0 50 0 50 units box
create_box          1 all
Created orthogonal box = (0.0000000 0.0000000 0.0000000) to (50.000000 50.000000 50.000000)
  1 by 2 by 3 MPI processor grid

# fill box with 4169 randomly distributed atoms
#
create_atoms        1 random 4169 63782 all
Created 4169 atoms
  create_atoms CPU = 0.000 seconds
mass                1 18.015

# Define potential
#
pair_style          sw
pair_coeff          * * mW_real.sw mW
Reading sw potential file mW_real.sw with DATE: 2019-02-27

# Run minimization
#
minimize            1.0e-8 1.0e-8 10000 1000
WARNING: Using 'neigh_modify every 1 delay 0 check yes' setting during minimization (../min.cpp:187)
Neighbor list info ...
  update every 1 steps, delay 0 steps, check yes
  max neighbors/atom: 2000, page size: 100000
  master list distance cutoff = 6.3065
  ghost atom cutoff = 6.3065
  binsize = 3.15325, bins = 16 16 16
  1 neighbor lists, perpetual/occasional/extra = 1 0 0
  (1) pair sw, perpetual
      attributes: full, newton on
      pair build: full/bin/atomonly
      stencil: full/bin/3d
      bin: standard
Per MPI rank memory allocation (min/avg/max) = 4.260 | 4.262 | 4.266 Mbytes
Step Temp E_pair E_mol TotEng Press 
       0            0    4900160.9            0    4900160.9    3723672.9 
     710            0   -47132.294            0   -47132.294   -728.65721 
Loop time of 1.84048 on 6 procs for 710 steps with 4169 atoms

99.2% CPU use with 6 MPI tasks x no OpenMP threads

Minimization stats:
  Stopping criterion = max force evaluations
  Energy initial, next-to-last, final = 
      4900160.86673089  -47132.1393790795  -47132.2936809525
  Force two-norm initial, final = 1.2605426e+08 2.7266892
  Force max component initial, final = 68346525.0 1.1006115
  Final line search alpha, max atom move = 0.10767057 0.11850347
  Iterations, force evaluations = 710 1001

MPI task timing breakdown:
Section |  min time  |  avg time  |  max time  |%varavg| %total
---------------------------------------------------------------
Pair    | 1.5029     | 1.6167     | 1.6576     |   4.1 | 87.84
Neigh   | 0.043323   | 0.043983   | 0.044971   |   0.3 |  2.39
Comm    | 0.11554    | 0.15722    | 0.27193    |  13.2 |  8.54
Output  | 0          | 0          | 0          |   0.0 |  0.00
Modify  | 0          | 0          | 0          |   0.0 |  0.00
Other   |            | 0.02255    |            |       |  1.23

Nlocal:        694.833 ave         704 max         679 min
Histogram: 1 0 0 0 0 1 1 0 2 1
Nghost:        1599.83 ave        1625 max        1573 min
Histogram: 1 0 0 1 0 2 0 1 0 1
Neighs:        0.00000 ave           0 max           0 min
Histogram: 6 0 0 0 0 0 0 0 0 0
FullNghs:      22862.3 ave       23497 max       21934 min
Histogram: 1 0 0 0 1 0 1 2 0 1

Total # of neighbors = 137174
Ave neighs/atom = 32.903334
Neighbor list builds = 42
Dangerous builds = 0

# Add velocity/set timestep
#
velocity            all create ${TEMP} 120598 rot yes dist gaussian
velocity            all create 275 120598 rot yes dist gaussian
timestep            5.0

# Define output
#
compute	            1 all msd
thermo	            100
thermo_style        custom step temp press vol etotal ke pe c_1[4] density

# Neighbor lists
#
neigh_modify        delay 0 every 1 check yes

# Set fixes
#
fix                 1 all momentum 10 linear 1 1 1 rescale
fix                 2 all nve
fix                 3 all temp/csvr ${TEMP} ${TEMP} 500.0 928347
fix                 3 all temp/csvr 275 ${TEMP} 500.0 928347
fix                 3 all temp/csvr 275 275 500.0 928347
fix                 4 all press/berendsen iso ${PRES} ${PRES} 1000.0 modulus 20000
fix                 4 all press/berendsen iso -1000 ${PRES} 1000.0 modulus 20000
fix                 4 all press/berendsen iso -1000 -1000 1000.0 modulus 20000

# Run 0.5 ns equilibration
#
dump                1 all custom 1000 eq.${NAME}.dump id type x y z vx vy vz
dump                1 all custom 1000 eq.liquid_275K_1000atm_mW.dump id type x y z vx vy vz
run                 100000
Per MPI rank memory allocation (min/avg/max) = 3.510 | 3.513 | 3.516 Mbytes
Step Temp Press Volume TotEng KinEng PotEng c_1[4] Density 
     710          275    520.78895       125000   -43715.689    3416.6045   -47132.294 1.9461438e-33   0.99771203 
     800    183.08445   -600.76383    127285.06   -42348.147    2274.6442   -44622.791   0.43862147   0.97980082 
     900    212.05922   -925.50894    127903.25   -41432.154    2634.6272   -44066.781   0.87282698   0.97506514 
    1000    230.99851   -1029.1472    127962.66    -40799.67    2869.9292   -43669.599    1.3294349   0.97461247 
    1100    245.12178   -963.02812    128178.96   -40349.306     3045.397   -43394.703    1.8439606   0.97296783 
    1200    248.21365   -917.75542    128378.08   -40056.611    3083.8104   -43140.421    2.5042491   0.97145871 
    1300    248.60705   -1012.1314    128430.24   -40003.892    3088.6981    -43092.59    3.1627588   0.97106415 
    1400    254.71544   -908.53609    128392.51   -39836.444    3164.5888   -43001.033    3.8288468   0.97134956 
    1500    258.71508   -958.22371    128424.47   -39769.287    3214.2804   -42983.567    4.6484621   0.97110781 
    1600    262.70301   -943.16587    128511.91   -39578.835    3263.8264   -42842.661     5.576354   0.97044701 
    1700    265.51977   -1006.4849    128342.21   -39392.956    3298.8219   -42691.778    6.4060492   0.97173019 
    1800    265.75509   -1275.9934    128011.02   -39399.004    3301.7456    -42700.75    7.4197777   0.97424429 
    1900     263.5271   -806.91953    127864.47   -39401.075    3274.0649    -42675.14    8.3176858   0.97536088 
    2000    271.45423   -995.08062    127824.91   -39299.509    3372.5518   -42672.061    9.2934333   0.97566271 
    2100    274.08981   -1005.0687    127631.11   -39184.667    3405.2963   -42589.964    10.221486   0.97714423 
    2200    273.34152    -1144.938    127554.03   -39162.189    3395.9995   -42558.189    11.248203   0.97773474 
    2300     272.3797   -968.46025    127443.12   -39156.375    3384.0499   -42540.425    12.694922   0.97858558 
    2400    276.82307   -1010.5189    127390.34   -39103.819    3439.2544   -42543.073    14.051023   0.97899103 
    2500    275.57096   -1155.4788    127504.87   -39103.164    3423.6981   -42526.862    15.433132   0.97811166 
    2600    281.32557    -1148.231    127585.07    -38993.84    3495.1935   -42489.033    16.657754   0.97749682 
    2700    275.04714   -950.74095    127736.39   -38889.579    3417.1901   -42306.769    17.975914   0.97633889 
    2800    283.28821   -1059.4318     127738.7   -38885.853    3519.5773    -42405.43    19.461825   0.97632122 
    2900    279.92029   -1155.4929    127706.74    -38901.56    3477.7342   -42379.294    21.029541   0.97656553 
    3000    278.93764   -995.39272    127641.04   -38984.428    3465.5258   -42449.954    22.568417   0.97706823 
    3100    273.79091    -1128.622    127314.52   -39018.702    3401.5827   -42420.285     23.81926    0.9795741 
    3200    272.45628   -983.00585    126837.38   -38976.606    3385.0012   -42361.607    25.052557   0.98325909 
    3300    274.84463   -947.80308    126968.09   -39021.695    3414.6741   -42436.369    26.271843   0.98224679 
    3400     277.8909   -1022.0332    126966.84   -38964.907    3452.5211   -42417.428    27.687148   0.98225647 
    3500    272.14363   -846.91648    127295.83   -38964.189    3381.1169   -42345.305    29.051674    0.9797179 
    3600    270.48373   -954.31253    127340.46   -39015.491    3360.4943   -42375.986    30.463814   0.97937456 
    3700    276.90281   -1062.4834    127255.33   -39057.985    3440.2451    -42498.23    31.968003   0.98002974 
    3800     268.3256   -870.59659    127507.76   -39062.147    3333.6816   -42395.828    33.467212   0.97808951 
    3900     274.9797   -937.56448    127394.29   -39038.515    3416.3523   -42454.867    35.004879   0.97896072 
    4000    277.76153   -1105.9562    127533.85   -39044.149    3450.9138   -42495.063    36.248675   0.97788942 
    4100    271.91377   -855.46284    127704.33   -39093.676    3378.2612   -42471.938    37.750181     0.976584 
    4200    277.95757   -885.34775    127637.13   -39030.759    3453.3494   -42484.108    39.287074   0.97709818 
    4300    272.62284   -753.46742    127517.91   -39077.898    3387.0706   -42464.969    40.513533   0.97801165 
    4400    279.23357    -1231.751    127532.83   -39076.878    3469.2024    -42546.08     41.70729   0.97789721 
    4500    281.85074    -1158.593    127227.98   -39087.894    3501.7182   -42589.613    42.666676   0.98024038 
    4600    274.30665   -1178.5431    127241.83   -39108.344    3407.9903   -42516.334     43.66948   0.98013372 
    4700    272.32762   -953.36122    127061.19   -39152.549    3383.4028   -42535.952    44.673498   0.98152715 
    4800    277.03558   -891.88191    127204.93    -39056.27    3441.8946   -42498.164    45.826001   0.98041799 
    4900    278.95366    -1110.916    127202.82   -39054.841    3465.7248   -42520.566    47.342347    0.9804343 
    5000     279.9743   -1025.5621    127379.17    -38921.33    3478.4052   -42399.736    48.620103   0.97907691 
    5100    277.55018    -1128.934    127401.19   -38854.665     3448.288   -42302.953    50.352804   0.97890765 
    5200    272.39508   -854.54806    127193.11   -38925.853    3384.2409   -42310.094     51.28907   0.98050912 
    5300    273.92152   -933.41219    127103.55    -38978.92    3403.2054   -42382.126    52.390841   0.98119999 
    5400    273.76476   -920.52829    127135.31   -38974.033    3401.2578   -42375.291    53.822397   0.98095491 
    5500    275.98373   -1069.7313    127105.72   -38993.804    3428.8264   -42422.631    55.077151   0.98118328 
    5600    272.74299   -1151.7662    127137.68   -39019.975    3388.5634   -42408.538     56.20423    0.9809366 
    5700    274.76548   -1047.2184    127202.75   -39029.667    3413.6907   -42443.358    57.400978   0.98043481 
    5800    272.85195   -1118.0395    127153.24   -39037.167    3389.9171   -42427.084    58.666238   0.98081656 
    5900    278.55146   -1002.0933    127302.15   -39011.103    3460.7279   -42471.831    59.841781   0.97966924 
    6000    271.55784   -990.07604    127268.52   -39103.256    3373.8391   -42477.095    61.136554   0.97992817 
    6100    278.50547   -1163.2607    127294.71   -39052.091    3460.1565   -42512.248    62.233657   0.97972654 
    6200    268.49425   -1013.6512    127293.87   -39093.703    3335.7769    -42429.48     63.44018   0.97973296 
    6300    275.74677   -1061.9038    127298.85   -39124.583    3425.8824   -42550.465    64.858194   0.97969467 
    6400    275.06581   -979.52603    127029.26   -39095.817    3417.4222   -42513.239    65.890042   0.98177383 
    6500      276.674   -1080.2283    127171.99   -38985.949    3437.4022   -42423.352    66.890436   0.98067192 
    6600     278.6476   -1051.9967     127200.1   -38966.588    3461.9224    -42428.51    68.226273    0.9804552 
    6700    271.22289   -916.12096    127256.25   -39081.843    3369.6777   -42451.521    69.760223   0.98002259 
    6800    273.80532   -1285.4631    127268.01   -39106.557    3401.7617   -42508.318      71.3174   0.97993203 
    6900     272.9864   -1117.6151    127402.51   -38992.613    3391.5875   -42384.201    72.961597   0.97889754 
    7000       276.59   -1141.0661    127184.66   -38917.646    3436.3586   -42354.005    74.269639   0.98057426 
    7100    275.12347    -1022.789    127055.67   -38907.522    3418.1385   -42325.661    75.841344   0.98156977 
    7200    275.58634   -995.26551    127089.19   -38956.139    3423.8891   -42380.028    76.802624   0.98131085 
    7300    272.92176   -807.70869    127214.99   -39030.856    3390.7844    -42421.64    78.046629    0.9803405 
    7400    272.26234   -1134.5045    127053.34     -39053.9    3382.5918   -42436.492    78.788324   0.98158778 
    7500    275.51049   -1053.5051    126975.78   -39043.102    3422.9468   -42466.049    80.175717   0.98218733 
    7600    266.52088   -1014.8071    126900.83   -39107.159    3311.2597   -42418.419    81.558153   0.98276746 
    7700    269.93096   -1185.1616    127142.76    -39136.42    3353.6266   -42490.047    82.540975   0.98089742 
    7800    276.80618    -887.8172     127198.7   -39034.258    3439.0444   -42473.303    83.873132     0.980466 
    7900    271.24133   -1026.6316    127168.07   -39015.569    3369.9067   -42385.476    85.109497   0.98070218 
    8000    272.30384   -917.99146    127315.72   -39106.491    3383.1073   -42489.598    86.348841   0.97956486 
    8100    270.47582   -1235.1823    127188.02   -39134.068     3360.396   -42494.464    87.403337   0.98054835 
    8200    270.64553    -970.0402    127040.32   -39178.402    3362.5045   -42540.907    88.435554   0.98168839 
    8300    267.54922   -1046.6357    127044.03   -39192.828    3324.0359   -42516.864    90.169858   0.98165968 
    8400    273.96848   -1026.6444    127095.43   -39149.946    3403.7888   -42553.735    91.482028   0.98126266 
    8500    274.51369    -878.7248    126933.08   -39080.479    3410.5626   -42491.042    92.767329   0.98251778 
    8600    273.24386   -1040.4893    126967.56   -39057.533    3394.7862   -42452.319    94.352251   0.98225095 
    8700    275.34065   -1083.4385    127059.05   -39003.185    3420.8368   -42424.022    95.584502   0.98154366 
    8800    276.62084   -1101.4028    127122.04   -39066.617    3436.7418   -42503.359    97.146796   0.98105732 
    8900    269.89489   -928.48234    127214.43   -39117.048    3353.1785   -42470.227     98.61863   0.98034477 
    9000     268.9689   -806.37336     127290.5   -39121.905     3341.674   -42463.579    99.744818   0.97975896 
    9100    272.79917   -892.61045    127273.28   -39115.973    3389.2613   -42505.235    100.69285   0.97989149 
    9200    270.25068   -1133.2863    127171.67   -39204.722    3357.5989   -42562.321    101.74264   0.98067442 
    9300    276.59195   -766.47111    127302.35   -39077.982    3436.3829   -42514.364    103.05814    0.9796677 
    9400    274.26885   -1093.0908    127496.76   -39139.955    3407.5207   -42547.475    104.36197   0.97817393 
    9500    275.14917   -1068.9672    127530.43    -39098.84    3418.4577   -42517.297    105.42831   0.97791566 
    9600     273.6243   -1037.0081    127405.36   -39077.205    3399.5127   -42476.718    106.98294   0.97887565 
    9700    277.33751   -1101.3678    127372.21    -39015.01    3445.6457   -42460.655     108.7499   0.97913037 
    9800    276.70163   -691.76195    127425.13   -39003.386    3437.7456   -42441.131    110.33664   0.97872377 
    9900    275.30598   -975.64872    127624.41   -39083.772     3420.406   -42504.178    111.66843   0.97719555 
   10000    270.93945   -1107.0461    127449.87   -39161.876    3366.1562   -42528.032     112.7095   0.97853379 
   10100    277.43661    -1023.278    127511.13   -39190.944    3446.8769    -42637.82    114.33443   0.97806365 
   10200     276.3888   -1026.6177    127435.22    -39168.35     3433.859   -42602.209    115.66869   0.97864625 
   10300    267.56241   -918.16619    127378.51   -39222.859    3324.1998   -42547.059    117.15922     0.979082 
   10400    270.37762   -1096.2831    127377.42   -39142.853     3359.176   -42502.029    118.25664   0.97909035 
   10500    267.95362   -1049.0791    127333.11   -39115.116    3329.0602   -42444.176    119.67252   0.97943108 
   10600    279.03285   -1014.5438    127619.77   -39052.366    3466.7087   -42519.075    121.12973   0.97723106 
   10700    282.70447   -1045.2682    127665.98   -38983.425    3512.3249    -42495.75    122.57553   0.97687733 
   10800    276.93756    -1014.038    127471.44   -38984.004    3440.6768   -42424.681    123.71896   0.97836818 
   10900      275.174   -904.12587    127398.62   -38995.732    3418.7662   -42414.498    124.68899   0.97892744 
   11000    276.41324   -1003.7238    127193.47   -38982.016    3434.1626   -42416.178    125.62965   0.98050633 
   11100     282.3009   -1164.4148    127204.04   -38970.909     3507.311    -42478.22    126.98848   0.98042486 
   11200     271.3207   -1137.8564    127318.47   -39042.725    3370.8928   -42413.618    128.56549   0.97954366 
   11300    270.66204    -704.3368    127242.33   -38960.437    3362.7096   -42323.147    130.36965   0.98012982 
   11400    272.63865   -994.68007    127265.77   -38980.593     3387.267    -42367.86    132.05469   0.97994932 
   11500    275.45191   -1010.0592    127215.74   -38977.147    3422.2191   -42399.366    134.04582   0.98033466 
   11600    276.69936   -779.29107    127639.27   -39018.145    3437.7174   -42455.863    136.12438   0.97708175 
   11700    271.22076   -912.18848    127869.87   -38976.937    3369.6512   -42346.588    138.17831   0.97531974 
   11800    279.95318   -1076.9207    127782.96   -38888.599    3478.1428   -42366.742    139.89622   0.97598309 
   11900    277.57872   -931.43489    127731.48   -38985.026    3448.6425   -42433.668     141.7112   0.97637644 
   12000    275.71772   -943.16742    127617.63   -39037.604    3425.5215   -42463.126     142.4029   0.97724744 
   12100    276.74864    -1074.417    127675.66   -39043.912    3438.3297   -42482.241    143.98897   0.97680326 
   12200      274.184   -1239.5545    127465.21   -38947.431    3406.4665   -42353.897    145.00145   0.97841599 
   12300     280.6984   -1017.0912    127230.65   -38979.894    3487.4016   -42467.296    145.82101    0.9802198 
   12400    272.99229   -1013.6544     126994.4   -39003.109    3391.6606    -42394.77    146.70705   0.98204336 
   12500    278.45486   -1008.0702     126916.8   -38967.139    3459.5277   -42426.667    147.82443   0.98264376 
   12600    275.32358   -832.62186    126996.94    -39037.37    3420.6247   -42457.995    149.16673   0.98202366 
   12700    275.55687   -933.77567    127306.64   -38925.467    3423.5231    -42348.99    151.39799    0.9796347 
   12800      278.902   -765.26084    127394.55   -38862.256    3465.0829   -42327.339    152.52845    0.9789587 
   12900     280.0976   -846.14023    127494.35   -38930.548    3479.9371   -42410.485    154.20385   0.97819238 
   13000    271.50237   -861.43935    127538.87   -38995.497    3373.1499   -42368.647    155.30765   0.97785096 
   13100    281.84236   -963.22607    127722.76   -38882.969    3501.6141   -42384.583    157.50759   0.97644309 
   13200    276.09314   -1018.6944    127564.67   -38890.751    3430.1857   -42320.937    158.24281   0.97765318 
   13300    283.35504   -961.33244    127482.35   -38833.942    3520.4076    -42354.35     159.2756   0.97828446 
   13400    276.87526   -990.98189    127630.83   -38863.425    3439.9027   -42303.327    160.75619   0.97714635 
   13500    276.61106   -1116.9075    127564.06   -38968.381    3436.6203   -42405.001    162.12898   0.97765782 
   13600    275.50839   -1121.4283    127465.77   -39030.813    3422.9208   -42453.734    163.89827   0.97841175 
   13700    270.81222   -1036.7731    127078.02   -39051.044    3364.5754    -42415.62    164.83934   0.98139712 
   13800    276.72114    -991.3302     127049.9   -38996.413    3437.9879   -42434.401    166.56666   0.98161435 
   13900    274.47301   -926.70772    127196.74   -38965.246    3410.0571   -42375.304    168.01331   0.98048111 
   14000    274.25143    -755.9485    127090.06   -38992.236    3407.3042    -42399.54    169.27388   0.98130415 
   14100    272.20257     -999.894    127364.36   -38969.355    3381.8492   -42351.205    171.13197   0.97919077 
   14200    272.03424   -1074.0417     127242.3   -39015.894    3379.7578   -42395.652    172.18121   0.98013003 
   14300     276.3026   -1096.0504    127276.52   -39024.919     3432.788   -42457.707    173.73339   0.97986653 
   14400    271.19515     -1063.16    127327.54   -39114.177     3369.333    -42483.51    174.92673   0.97947392 
   14500    274.73349      -1123.7    127438.13   -39087.771    3413.2933   -42501.064    175.65872   0.97862396 
   14600    273.65348   -1003.4978    127462.94   -39014.035    3399.8753   -42413.911    177.01064   0.97843342 
   14700    269.52202   -1162.8211    127264.94   -39014.835    3348.5459   -42363.381    178.19442   0.97995573 
   14800    272.90292    -976.7356    126987.82   -39054.915    3390.5503   -42445.466    179.17654   0.98209423 
   14900    269.05443   -818.90588    127023.11   -39168.826    3342.7366   -42511.563    180.46821   0.98182135 
   15000    269.84937   -1207.3541    127085.62   -39149.873    3352.6129   -42502.486      181.792   0.98133845 
   15100    266.37221   -875.13145    127200.52   -39149.972    3309.4126   -42459.384    182.86663   0.98045197 
   15200    266.99992   -915.63812    127324.01   -39129.313    3317.2114   -42446.524    184.70469    0.9795011 
   15300    273.67419    -1083.084    127236.69   -39086.568    3400.1325     -42486.7    186.28512   0.98017328 
   15400     273.6304   -1038.6786    127366.26   -39090.996    3399.5886   -42490.585    188.30222   0.97917615 
   15500    273.26638    -909.6197    127230.18   -39047.598    3395.0659   -42442.663    189.50292   0.98022344 
   15600    276.12581   -1077.9974    127212.56   -39124.005    3430.5915   -42554.597    191.15303   0.98035917 
   15700    270.18289   -1023.0031    127052.75   -39039.232    3356.7566   -42395.988    192.68161   0.98159236 
   15800    275.28145   -1054.6969    126589.54   -39098.436    3420.1012   -42518.537    193.23889   0.98518411 
   15900    266.12967   -923.49601    126900.05   -39150.493    3306.3994   -42456.892    194.56145   0.98277347 
   16000    268.56203   -946.37986    127047.59   -39126.911     3336.619    -42463.53    195.75948   0.98163219 
   16100    279.39385   -949.06796    127269.58   -39062.605    3471.1938   -42533.799     197.3644   0.97991997 
   16200    272.44442   -1193.4732     127153.5   -39051.917    3384.8539   -42436.771    198.37563   0.98081455 
   16300    272.96723   -866.52358    126893.06   -39113.659    3391.3493   -42505.008    199.31736   0.98282763 
   16400    272.53188    -1159.018    127094.97   -39078.079    3385.9405    -42464.02    200.96564   0.98126626 
   16500    276.36419   -1092.3713    127093.13   -38947.403    3433.5531   -42380.957    202.14969   0.98128047 
   16600    273.31512   -870.22413    126870.02    -38954.98    3395.6714   -42350.652    203.75995   0.98300609 
   16700    278.45565   -926.76583    126746.41   -38962.546    3459.5375   -42422.084    204.80785   0.98396477 
   16800    277.15165    -954.7495     127090.1   -38959.998    3443.3366   -42403.334    207.06462   0.98130388 
   16900    279.41971   -924.34763    127201.66   -38909.118    3471.5151   -42380.633    208.38732    0.9804432 
   17000    273.29161   -1080.8817    127246.16   -38940.238    3395.3795   -42335.618    210.37051   0.98010034 
   17100    274.93439   -868.09816    127161.82   -38977.465    3415.7893   -42393.254    212.39516   0.98075037 
   17200    278.00016   -959.21134    127238.81   -38886.527    3453.8785   -42340.406    214.19863   0.98015697 
   17300    273.34448   -1026.8994    126985.05   -38900.923    3396.0362   -42296.959    215.32134   0.98211563 
   17400    281.44855   -1036.4959    126942.13   -38962.204    3496.7214   -42458.925    216.78309   0.98244771 
   17500    277.52491   -985.02721    127128.92   -38972.379     3447.974   -42420.353    218.37928   0.98100423 
   17600    275.16137   -1086.3608    127078.79    -39009.22    3418.6093   -42427.829    219.89805   0.98139116 
   17700    274.13727   -1095.4546    126885.78    -38956.33     3405.886   -42362.215    221.35015   0.98288399 
   17800     281.5679   -1124.0714    126855.03   -38992.105    3498.2042   -42490.309    222.78562   0.98312227 
   17900    278.57917    -929.3035    126967.73   -38993.839    3461.0721   -42454.911    223.61302   0.98224959 
   18000    277.53828   -1060.7255    127158.51   -38937.342    3448.1402   -42385.482    225.27171   0.98077593 
   18100    279.37756   -1014.4405    127495.32   -38863.915    3470.9914   -42334.906    227.36667   0.97818496 
   18200    273.03544   -1186.4722    127347.56   -39010.012    3392.1967   -42402.208    228.81859   0.97931992 
   18300    278.72631   -1138.9109    127184.33    -38971.72    3462.9002    -42434.62    229.88007   0.98057683 
   18400    281.23784   -953.68473    127138.62   -38951.537    3494.1035    -42445.64    231.03728   0.98092933 
   18500    279.55048   -1039.2396    127252.57   -38957.616    3473.1397   -42430.755    232.00254   0.98005095 
   18600    278.61446   -1119.8674    127072.88   -39007.033    3461.5106   -42468.544     233.0681   0.98143679 
   18700    272.78187   -808.90676    127045.26   -39027.826    3389.0464   -42416.872    234.23803   0.98165015 
   18800    270.39475   -1048.6715    126927.42   -38992.064    3359.3888   -42351.453    235.81202   0.98256153 
   18900    280.85494     -1062.72    126978.02    -38949.81    3489.3463   -42439.157    237.01167   0.98217004 
   19000    278.08877   -902.39474    127144.52   -39012.059    3454.9794   -42467.038    238.45023   0.98088384 
   19100    276.40228   -939.31837    127209.38   -38972.014    3434.0265    -42406.04    240.07857   0.98038373 
   19200    274.80179   -1059.4003    127423.26   -39010.242    3414.1419   -42424.384    241.81436   0.97873812 
   19300    278.61777   -974.78093    127440.67   -38937.471    3461.5517   -42399.022     243.1155   0.97860439 
   19400    279.57225    -1112.937    127614.53   -38917.131    3473.4102   -42390.542    244.72356   0.97727116 
   19500    279.75417   -918.28284     127792.7    -38930.55    3475.6703   -42406.221    245.85332   0.97590864 
   19600    274.11113   -939.77474    127632.19   -38950.155    3405.5612   -42355.716    246.84319   0.97713595 
   19700    276.12206   -1208.6373    127651.43   -38985.888    3430.5449   -42416.433    247.97376    0.9769887 
   19800    273.56869   -1192.7116    127493.33   -38935.702    3398.8218   -42334.524    249.79483   0.97820019 
   19900    276.97964   -1040.3172    127531.45   -38982.152    3441.1995   -42423.351    250.58957   0.97790781 
   20000    275.39999   -951.70023    127613.05     -39010.1    3421.5739   -42431.674    252.29486   0.97728249 
   20100    273.19262   -1031.2939    127570.27   -39025.355    3394.1495   -42419.504    253.80396   0.97761026 
   20200    274.41384   -1163.5722    127373.93   -39041.264     3409.322   -42450.586    254.76198   0.97911719 
   20300    269.85557   -1066.6647    127441.29   -39046.433    3352.6899   -42399.123    256.28648   0.97859967 
   20400    272.50966   -1009.3951    127421.34   -39122.201    3385.6644   -42507.865    257.50098    0.9787529 
   20500    271.57707   -945.53113    127494.23   -39083.983    3374.0779   -42458.061    258.40368    0.9781933 
   20600    272.68789   -1100.9073    127719.28   -39065.854    3387.8788   -42453.733    260.79015   0.97646967 
   20700    273.54413   -918.46582    127767.66   -39112.182    3398.5168   -42510.699    262.05494   0.97609996 
   20800    273.61559   -948.48077     127742.2   -38991.918    3399.4046   -42391.323    263.49717   0.97629444 
   20900     273.3195   -1122.1178    127408.11   -38972.242    3395.7259   -42367.968    263.95318   0.97885451 
   21000     274.9629   -1107.5113    127247.89   -38985.022    3416.1435   -42401.166    264.88739   0.98008704 
   21100    274.05598   -1055.1924    127086.26     -39159.2     3404.876   -42564.076    265.51557   0.98133347 
   21200    266.85212   -936.73175    127105.64    -39187.29     3315.375   -42502.665     266.8433   0.98118388 
   21300     270.9045   -1001.8606    127328.47   -39119.672    3365.7219   -42485.394    268.51793   0.97946675 
   21400    273.48882   -940.98106    127448.46   -39094.027    3397.8295   -42491.856    269.74247   0.97854464 
   21500      271.397   -1146.2567    127573.13   -39064.192    3371.8408   -42436.033    271.25747   0.97758837 
   21600    272.79496   -834.31345    127565.67   -39097.932     3389.209   -42487.141    271.60717   0.97764546 
   21700    279.07717   -804.73066    127519.66   -39042.784    3467.2593   -42510.043    272.70499   0.97799821 
   21800    274.66858   -955.28522    127633.28   -38996.094    3412.4869   -42408.581    274.33024   0.97712763 
   21900    268.27696   -786.69584    127738.11   -38999.007    3333.0774   -42332.084    275.33283   0.97632575 
   22000    278.94114   -992.20351    127790.73   -38993.547    3465.5692   -42459.116    276.39221   0.97592373 
   22100    274.57875   -1028.0813    127667.35   -39048.506    3411.3708   -42459.876    277.66887   0.97686687 
   22200    271.51077   -1046.5084    127495.56   -39015.754    3373.2542   -42389.008    279.37677   0.97818315 
   22300     274.3965   -1155.5113    127430.03   -38948.428    3409.1066   -42357.535    280.67187   0.97868616 
   22400    274.99549    -949.5074    127248.09   -38933.731    3416.5485   -42350.279    281.58968   0.98008543 
   22500    274.36555   -874.56616    127533.48   -38919.951     3408.722   -42328.673    282.80809   0.97789223 
   22600    280.04385   -1120.7372    127356.72   -38909.452    3479.2694   -42388.722    284.26466   0.97924951 
   22700    273.12623   -1075.6505    127357.24   -38868.176    3393.3247     -42261.5    284.90597    0.9792455 
   22800    278.81555   -1031.7994    127342.21   -38887.043    3464.0089   -42351.052    285.75787    0.9793611 
   22900     278.0939   -1009.3265    127239.37   -38881.111    3455.0431   -42336.154    287.19296   0.98015266 
   23000    279.19787    -1043.265    127116.21   -38891.238    3468.7588   -42359.997     288.1671   0.98110229 
   23100    281.38696   -729.33356    127190.34   -38907.697    3495.9562   -42403.654    289.58393   0.98053046 
   23200    270.66125   -930.00757    127367.16   -39003.843    3362.6998   -42366.543    291.47126   0.97916922 
   23300    270.57682   -1137.6476    127214.41   -39016.103    3361.6508   -42377.754    292.84064   0.98034493 
   23400    276.91262    -932.2135    127167.65   -39000.573    3440.3669    -42440.94    294.20044   0.98070544 
   23500    276.26874   -1086.2577    127157.44    -38965.74    3432.3673   -42398.107    295.37867   0.98078418 
   23600    276.54265   -730.39325    127189.27   -38982.475    3435.7703   -42418.245    296.78446   0.98053868 
   23700    275.64388   -883.46049     127446.7   -38996.036    3424.6041    -42420.64    299.44346   0.97855812 
   23800    268.08041   -1007.8941    127195.41   -39056.894    3330.6353   -42387.529    300.18844   0.98049142 
   23900    271.88814   -986.56257    127326.92   -39073.879    3377.9427   -42451.822    301.51725   0.97947871 
   24000    269.13878   -1217.3114    127519.84   -39062.076    3343.7845    -42405.86    303.34011   0.97799688 
   24100    271.07758   -940.35873    127443.99   -39017.126    3367.8722   -42384.998     305.3584   0.97857896 
   24200    271.09556   -976.01761    127277.11   -39050.285    3368.0957   -42418.381    306.94154   0.97986197 
   24300    271.39508   -866.22151    127454.99   -39077.804    3371.8169   -42449.621    308.95917   0.97849444 
   24400    269.81903   -850.38163    127568.29   -39040.301     3352.236   -42392.537    310.60143   0.97762543 
   24500    265.62192   -967.41126       127279   -39087.133    3300.0911   -42387.224    311.46184   0.97984747 
   24600    273.20934   -1090.1363    126957.82   -39032.582    3394.3573   -42426.939    312.36207   0.98232626 
   24700     274.3564   -895.28589    126892.88   -39033.809    3408.6084   -42442.417    313.93093     0.982829 
   24800      274.256   -1013.5818    126851.68   -39053.137     3407.361   -42460.498    314.64865   0.98314823 
   24900     269.0151   -916.87848    127022.13   -39047.068     3342.248   -42389.316    316.37527   0.98182894 
   25000    280.48984   -898.65692    127124.25   -38992.225    3484.8104   -42477.035    317.43023   0.98104021 
   25100    278.88951    -924.9905    127411.49     -38979.5    3464.9279   -42444.428    319.49226   0.97882851 
   25200    272.18717   -757.00489    127460.13    -39008.68    3381.6579   -42390.338    320.90882   0.97845498 
   25300    272.24178   -961.74596    127505.47    -39040.77    3382.3364   -42423.106    321.98325   0.97810707 
   25400    273.84407   -1030.9517    127458.08    -38993.91    3402.2432   -42396.153    323.31597   0.97847079 
   25500    275.31147   -1070.5308     127342.8   -39010.619    3420.4742   -42431.094    324.46322    0.9793565 
   25600    271.55986   -936.78355    127166.77   -39002.397    3373.8642   -42376.262    324.82687   0.98071222 
   25700    274.12017   -792.45423    127299.96   -38970.869    3405.6735   -42376.542    326.49768   0.97968611 
   25800    275.12613   -973.65187    127181.46   -39045.057    3418.1715   -42463.228    327.78893   0.98059893 
   25900    273.85066   -1010.8782    127110.32   -39067.088    3402.3251   -42469.413    328.29315   0.98114771 
   26000    276.35756   -796.12587    127395.03    -38981.57    3433.4708   -42415.041    330.01523   0.97895498 
   26100    274.50492   -909.36366     127635.1   -38950.248    3410.4536   -42360.702    331.63344    0.9771137 
   26200    276.83477   -948.62248    127446.56   -39018.745    3439.3997   -42458.145    333.13314   0.97855922 
   26300    269.63344   -940.63764     127174.6   -38999.323    3349.9302   -42349.253    334.13645   0.98065181 
   26400    274.60611   -864.33763    127452.75   -38966.368    3411.7108   -42378.079    336.25036   0.97851168 
   26500    272.95187   -1035.4073    127491.69     -38962.8    3391.1585   -42353.959    337.58261   0.97821282 
   26600    270.39183   -1175.1699     127604.3   -38988.443    3359.3525   -42347.795    338.69377   0.97734956 
   26700    275.53858   -1094.3098    127525.98   -39042.446    3423.2958   -42465.742    339.81895   0.97794981 
   26800    269.62782   -1106.9588     127424.7   -39038.164    3349.8604   -42388.024    341.08929   0.97872708 
   26900    277.64513   -879.60053    127164.19   -38987.665    3449.4676   -42437.132    341.91806   0.98073208 
   27000    274.04539   -1073.3592    127525.37   -38996.815    3404.7443   -42401.559    344.44467   0.97795445 
   27100    272.65624   -838.65238    127684.51   -39044.968    3387.4855   -42432.453    346.97198   0.97673555 
   27200    271.20186   -1065.1766    127708.83   -39077.419    3369.4164   -42446.836    348.21133   0.97654958 
   27300    271.42691   -1124.1991    127409.99   -39094.859    3372.2123   -42467.071    349.10001   0.97884006 
   27400     270.0668   -1039.9526    127501.53    -39099.93    3355.3143   -42455.244    349.90519   0.97813727 
   27500    277.05256   -1300.5105    127480.75    -38978.51    3442.1055   -42420.616    350.89555   0.97829672 
   27600     272.5414    -1038.497    127443.32   -38978.941    3386.0588       -42365    352.34781   0.97858406 
   27700    278.40399   -1013.9966    127127.05   -39015.923    3458.8957   -42474.819    352.54225   0.98101865 
   27800    275.98138   -909.87696    127320.28   -39031.804    3428.7972   -42460.601    354.37284   0.97952977 
   27900    278.12616   -775.91586    127562.17   -38899.045     3455.444   -42354.489     356.3067   0.97767233 
   28000     275.1947   -1006.8601     127441.2   -39023.577    3419.0234   -42442.601    357.42145   0.97860038 
   28100    273.41688   -1130.1542    127247.81   -39022.514    3396.9358    -42419.45    358.13085   0.98008765 
   28200    276.12332   -1063.0151    127175.48   -38966.881    3430.5606   -42397.441    360.05198   0.98064505 
   28300    276.10905   -741.41504    127195.08   -39001.605    3430.3833   -42431.988    360.92347   0.98049392 
   28400    270.65424   -1172.8813    127547.64   -39015.546    3362.6127   -42378.158    363.10692   0.97778368 
   28500    273.25396   -906.49598    127329.79   -39087.194    3394.9116   -42482.106    363.63503   0.97945657 
   28600    274.74046   -876.19744     127228.7   -39107.129      3413.38   -42520.509    365.37051   0.98023483 
   28700    276.41779   -1037.7619    127124.02   -38999.422    3434.2192   -42433.642    367.14583   0.98104198 
   28800    277.01648   -853.95285     127360.5   -38980.929    3441.6573   -42422.586    369.13671   0.97922041 
   28900    278.11641   -1012.4093    127410.15    -39020.85    3455.3228   -42476.173    370.07992   0.97883888 
   29000    273.02515   -732.19333    127556.56   -38947.621    3392.0689    -42339.69    371.34648   0.97771535 
   29100    276.55958   -1053.6978    127381.13   -39021.314    3435.9807   -42457.294    371.71489   0.97906188 
   29200    278.31908   -797.42764    127475.65    -38902.27    3457.8408    -42360.11    373.29119   0.97833592 
   29300    278.60823   -858.13141    127553.96   -38921.514    3461.4332   -42382.947    375.41639   0.97773527 
   29400    273.11376   -1064.2088     127306.4   -39018.052    3393.1698   -42411.222    376.15554   0.97963653 
   29500    271.80336   -938.54916    127390.57   -39088.116    3376.8894   -42465.006     377.0929   0.97898927 
   29600     271.4602   -1096.8327    127255.23   -39103.085     3372.626   -42475.711    377.82539   0.98003048 
   29700       274.93   -780.59624    127155.53   -39023.027    3415.7348   -42438.762    380.06066   0.98079892 
   29800    272.17895   -1003.5334    127244.99   -39095.807    3381.5557   -42477.363    382.12378   0.98010931 
   29900    277.13461    -944.1067    127661.62   -39094.795    3443.1249    -42537.92    384.08322   0.97691071 
   30000    273.52217   -999.81631    127642.99   -39085.565    3398.2439   -42483.809      385.927   0.97705326 
   30100    269.84517   -887.29643    127473.09   -39083.423    3352.5607   -42435.984    386.91428   0.97835552 
   30200    272.75622   -1091.1268    127396.09   -39081.072    3388.7277     -42469.8    388.33248   0.97894686 
   30300    275.06624   -882.67403    127748.51   -39089.602    3417.4275    -42507.03    389.77741   0.97624625 
   30400    278.91113   -1275.0803    127686.11   -39002.553    3465.1965    -42467.75    391.00729   0.97672335 
   30500    276.46872   -1156.1801    127443.07   -38996.778    3434.8519    -42431.63    391.78874   0.97858602 
   30600    272.54122   -965.30836    127554.14   -39002.855    3386.0565   -42388.912    392.92138   0.97773385 
   30700    281.21333   -895.92687    127696.33   -39016.805     3493.799   -42510.604    395.00341   0.97664514 
   30800    272.45979   -1030.1927    127384.01   -39024.095    3385.0449   -42409.139    395.68788    0.9790397 
   30900    276.74458   -1010.7692    127494.05   -38946.972    3438.2792   -42385.251    397.27202   0.97819471 
   31000      272.007    -994.2363    127367.35   -39031.843    3379.4194   -42411.262    399.01151   0.97916775 
   31100    273.92498   -709.35847    127593.78   -39103.454    3403.2484   -42506.703    400.30431   0.97743013 
   31200    274.17485   -989.45178    127458.94   -39111.682    3406.3529   -42518.035    401.63906   0.97846417 
   31300    272.65054   -883.48133    127283.66   -39168.826    3387.4147    -42556.24    402.80781   0.97981159 
   31400    276.13123   -1071.4892    127138.46   -39051.711    3430.6589    -42482.37    403.97129   0.98093057 
   31500    273.17971   -1060.8445    127193.35   -39037.983    3393.9891   -42431.972    405.43295   0.98050726 
   31600    276.69655   -945.87934     127295.9   -39017.174    3437.6825   -42454.856    407.29731   0.97971734 
   31700    267.79157   -808.98486    127302.65   -39006.552    3327.0468   -42333.599    410.02824   0.97966538 
   31800    272.95672   -969.73949    127399.41    -39011.76    3391.2187   -42402.979    412.44872   0.97892138 
   31900    277.86234   -876.98805    127473.82   -38941.152    3452.1663   -42393.318    414.33093   0.97834994 
   32000    277.65947   -1038.1659     127183.4   -38934.156    3449.6458   -42383.802    415.22609   0.98058396 
   32100    273.99905   -1041.1839    127143.13    -38963.38    3404.1687   -42367.549    416.15596   0.98089455 
   32200    273.00459   -922.05381    127225.78   -38956.551    3391.8135   -42348.364    417.27634   0.98025735 
   32300    272.81953   -1026.1782    127542.07    -38936.28    3389.5143   -42325.795    419.07034    0.9778264 
   32400     279.9875   -755.35507    127647.79   -38899.388    3478.5693   -42377.957    420.78336   0.97701656 
   32500    278.82526   -1140.3316    127652.36   -38948.908    3464.1295   -42413.037    422.44112   0.97698158 
   32600    272.16674   -1174.4279    127663.82   -38964.055    3381.4041   -42345.459    424.03127   0.97689386 
   32700    275.84705   -870.72419    127295.77   -38953.187    3427.1283   -42380.316    424.91818   0.97971835 
   32800    274.30399   -1133.3575    127151.97   -39009.702    3407.9573   -42417.659    426.48097   0.98082638 
   32900    276.63924   -1173.0121    127117.92   -39050.698    3436.9705   -42487.669    427.47516   0.98108907 
   33000    274.99219   -986.96445    127065.74   -39111.521    3416.5075   -42528.029    428.57981   0.98149199 
   33100    270.21247   -857.83654    127042.74   -39124.509    3357.1241   -42481.633    429.15781   0.98166964 
   33200    277.94391   -934.52053    127399.27   -39044.234    3453.1797   -42497.414    431.21033   0.97892247 
   33300    269.85179   -1140.9406    127440.13    -39074.44     3352.643   -42427.083    431.82077   0.97860859 
   33400    278.95401   -1160.8663    127463.94   -39013.592    3465.7292   -42479.322    432.57562    0.9784258 
   33500    270.46804   -1099.0973    127522.14   -39070.091    3360.2993    -42430.39    433.80997   0.97797925 
   33600     269.2673    -900.4628    127213.16   -39063.032    3345.3813   -42408.414    434.44615   0.98035457 
   33700    276.16576   -982.64027    127286.37   -39070.469    3431.0879   -42501.557    436.27848   0.97979073 
   33800    277.03365   -875.27878    127218.22    -39035.26    3441.8706   -42477.131    437.87449   0.98031556 
   33900    276.07361   -957.63385    127185.91   -39012.087     3429.943   -42442.031     438.9053   0.98056464 
   34000     272.7666   -964.94338    127272.12   -39019.904    3388.8567    -42408.76    439.72538   0.97990039 
   34100    275.59496   -1062.0263    127453.02   -38997.399    3423.9962   -42421.396    441.43018   0.97850959 
   34200    273.79952   -1034.3713    127560.25   -39020.975    3401.6897   -42422.665    443.11176   0.97768706 
   34300    272.23208   -882.40971    127429.14   -39026.188    3382.2158   -42408.404     443.9667   0.97869299 
   34400    274.91644   -1026.8751    127348.61   -39080.919    3415.5663   -42496.485    444.70757   0.97931185 
   34500    275.07726   -1126.9118    127621.68   -39002.979    3417.5644   -42420.544    446.69455    0.9772164 
   34600     273.8535   -1044.6369    127419.41    -39015.78    3402.3604   -42418.141    447.76677    0.9787677 
   34700    275.43187    -848.3835    127313.98   -39051.321      3421.97   -42473.291    448.25179    0.9795782 
   34800    271.32214   -975.90824    127336.43   -39087.718    3370.9107   -42458.629     449.6023   0.97940555 
   34900    271.51131   -1083.9957    127184.77   -39165.482     3373.261   -42538.743    452.36581    0.9805734 
   35000    273.85604    -770.5073    127194.94   -39122.905     3402.392   -42525.297     453.2794   0.98049504 
   35100    277.34467   -1172.5647    127345.95   -39195.315    3445.7347    -42641.05    454.97664   0.97933233 
   35200    271.30227   -873.88498    127144.32   -39109.827    3370.6638   -42480.491    455.82217   0.98088538 
   35300    270.35985   -885.30207    127511.68   -39085.385    3358.9552    -42444.34    458.10987   0.97805945 
   35400    273.21411   -1074.5033    127334.37   -39096.004    3394.4165   -42490.421    458.74347   0.97942139 
   35500    271.73085   -1129.6745    127265.41   -39056.225    3375.9885   -42432.214    459.56339   0.97995211 
   35600    274.92122   -850.18055    127295.01   -38965.348    3415.6257   -42380.974     460.7461   0.97972419 
   35700    279.45526   -830.12201    127285.65   -38998.625    3471.9568   -42470.582    462.20531   0.97979625 
   35800    277.59124   -1119.9379     127256.7   -38989.004     3448.798   -42437.802    462.94923   0.98001914 
   35900    268.93036   -763.20207    127394.42   -39016.701    3341.1952   -42357.896    465.09292   0.97895972 
   36000    278.39385   -871.66671    127641.38   -38932.423    3458.7698   -42391.192    467.48923    0.9770656 
   36100    279.26704   -1005.6153    127730.04   -38884.541    3469.6182   -42354.159    468.12112   0.97638741 
   36200    276.39192   -1241.9308    127532.17   -38923.442    3433.8978    -42357.34    468.82181   0.97790231 
   36300    277.98425   -893.94729    127534.86   -38995.607    3453.6809   -42449.288    470.92178   0.97788172 
   36400    272.36034   -971.88656    127770.54   -39031.304    3383.8094   -42415.113    472.98398   0.97607793 
   36500    272.64531   -1017.4576    127424.45   -38974.288    3387.3498   -42361.638    473.56784   0.97872897 
   36600    272.64155   -1131.6168    127173.94   -39047.019     3387.303   -42434.322    474.17186   0.98065693 
   36700    273.52351   -986.23554    127044.72   -39105.946    3398.2605   -42504.207    475.20431   0.98165438 
   36800    274.19887   -1037.9261    127186.79   -39037.508    3406.6512    -42444.16    476.74175   0.98055781 
   36900    274.17885   -1210.8985    127116.05   -39043.101    3406.4025   -42449.503    477.66513   0.98110355 
   37000    270.33456   -829.43649    126962.69   -39074.679     3358.641    -42433.32    478.43851   0.98228861 
   37100    273.02961   -1021.6289    126899.36   -39003.165    3392.1243   -42395.289    479.30883   0.98277882 
   37200    276.87176   -962.29046     127011.8   -38949.501    3439.8593    -42389.36    481.27701   0.98190877 
   37300    273.34394   -1086.3952    127199.58   -39017.364    3396.0295   -42413.394    483.45367   0.98045923 
   37400    264.66713   -914.71942    127121.45   -39060.538    3288.2288   -42348.767     484.9727   0.98106184 
   37500    274.50056   -1085.8931     126979.9   -39037.422    3410.3995   -42447.821    486.05214   0.98215545 
   37600    277.00705   -1026.1531    127068.41   -39068.925    3441.5401   -42510.465    487.81529   0.98147137 
   37700     276.6356   -1081.1329    127290.93   -39031.378    3436.9252   -42468.304    490.22702   0.97975565 
   37800    267.37447   -799.97857    127309.57   -39108.179    3321.8648   -42430.044    491.62191    0.9796122 
   37900    275.92149   -768.31417    127296.16   -39163.288    3428.0531   -42591.342    493.75056   0.97971539 
   38000    273.69553   -1017.8829    127586.02   -39119.777    3400.3977   -42520.175    496.47817   0.97748958 
   38100    266.39546    -984.6419    127458.75   -39109.385    3309.7015   -42419.087    497.84282   0.97846564 
   38200    272.24386   -1039.0431    127291.77   -39040.949    3382.3621   -42423.311    499.12362   0.97974912 
   38300    275.71421    -770.7516    127457.26   -39022.923    3425.4778   -42448.401     500.3915   0.97847702 
   38400    283.73787   -965.27285    127551.39   -38982.906    3525.1639    -42508.07    501.29656   0.97775497 
   38500    276.29094   -789.47053    127398.47   -39093.082    3432.6431   -42525.725    503.28899   0.97892857 
   38600    274.06677   -1109.2581    127410.56   -39107.196      3405.01   -42512.206    505.30888   0.97883565 
   38700    275.92635   -1032.9187     127528.5   -39029.501    3428.1134   -42457.614    507.11284   0.97793047 
   38800    269.27707   -998.08769    127573.36   -39019.153    3345.5027   -42364.656    508.46871   0.97758654 
   38900     278.0593   -867.98849     127508.9   -39004.242    3454.6133   -42458.856    508.95168   0.97808078 
   39000    274.91137   -1333.9757    127427.05   -39020.754    3415.5033   -42436.257     510.8445   0.97870899 
   39100    268.85923   -796.03711    127437.24   -39044.884    3340.3114   -42385.196    512.45692   0.97863075 
   39200    272.33703   -1140.9376    127271.17   -38994.246    3383.5197   -42377.766    513.32583   0.97990773 
   39300    273.50793   -1049.9472    127327.45   -38989.996     3398.067   -42388.063    515.20463   0.97947459 
   39400    274.48195   -978.34537    127611.27   -38981.151    3410.1682   -42391.319    517.49991   0.97729616 
   39500    276.28049   -1105.0244    127700.21   -38941.791    3432.5133   -42374.304    519.26192   0.97661546 
   39600    274.36592    -700.9967    127697.88   -38893.068    3408.7267   -42301.794    521.47986   0.97663334 
   39700     274.2661   -1088.1233    127591.47   -38956.182    3407.4865   -42363.669    522.32472   0.97744782 
   39800    276.09011   -846.75241    127490.81   -38925.021     3430.148   -42355.169    523.30415   0.97821956 
   39900    271.10523     -1121.43     127706.6   -38981.172    3368.2158   -42349.388    525.39129   0.97656662 
   40000    274.79418   -1020.7989    127360.41   -38998.165    3414.0474   -42412.213    525.44824    0.9792211 
   40100    273.99254    -1184.084    127234.54   -39010.356    3404.0877   -42414.444    525.48575   0.98018986 
   40200    273.03201   -1242.4784    127206.95   -38949.466    3392.1541    -42341.62    526.15718   0.98040244 
   40300    273.79357     -1015.18    127131.64   -38991.758    3401.6158   -42393.374    528.11779   0.98098324 
   40400    275.07456   -725.31569    127254.68   -38938.431    3417.5308   -42355.962    529.91489   0.98003474 
   40500    276.01102   -850.13555    127575.05   -38798.947    3429.1654   -42228.112    531.71759   0.97757361 
   40600     272.8787   -1004.5758    127347.35    -38899.65    3390.2495   -42289.899    533.22879   0.97932152 
   40700    280.85821   -969.89974    127210.95   -38897.271     3489.387   -42386.658    534.44127   0.98037163 
   40800    278.15438   -946.89715    127119.96    -38970.09    3455.7945   -42425.884     534.9485   0.98107332 
   40900    271.33693   -1132.8775    126778.19   -39091.243    3371.0945   -42462.338     534.4872   0.98371813 
   41000    276.15435   -817.84133    126774.99    -39024.82    3430.9461   -42455.766    535.36879   0.98374294 
   41100    278.63228   -1284.4915    126992.94   -38975.638    3461.7319    -42437.37    536.91162   0.98205458 
   41200     276.4898   -941.97694    126871.52   -38951.839    3435.1138   -42386.953    538.74601   0.98299452 
   41300    272.84614   -967.65385    126902.89   -39027.462    3389.8449   -42417.307    540.45855   0.98275151 
   41400     269.7662   -803.78257    127260.51   -39153.659    3351.5797   -42505.238    541.37417   0.97998983 
   41500    270.31038    -987.9755    127120.19   -39109.375    3358.3405   -42467.716    541.98378   0.98107157 
   41600    275.24111    -991.2343    127183.46   -39079.772    3419.6001   -42499.372    544.08225   0.98058352 
   41700    271.36022   -1180.3255    127303.55   -39045.462    3371.3839   -42416.846    546.24709   0.97965849 
   41800    270.79379   -1087.5541    127138.63   -39065.003    3364.3465   -42429.349    545.76801   0.98092927 
   41900    273.23268   -794.43141    127335.64   -39035.675    3394.6472   -42430.323    547.33213   0.97941159 
   42000    278.42124   -1119.5265     127361.8   -39004.026      3459.11   -42463.137    548.75251   0.97921047 
   42100    269.75092   -921.07925    127346.05   -39057.366    3351.3898   -42408.756    549.23814   0.97933152 
   42200    280.15706   -1003.9208    127497.96    -38962.51    3480.6759   -42443.186    550.75632   0.97816473 
   42300    274.07505   -996.75669    127497.18   -38908.377    3405.1129    -42313.49    552.64516   0.97817066 
   42400    279.11543   -973.77572    127812.63   -38908.185    3467.7346    -42375.92    554.45274   0.97575653 
   42500    276.10532   -934.46242    127463.93   -38935.648     3430.337   -42365.985    553.76092   0.97842583 
   42600    276.60774   -893.36661    127452.74   -38910.297     3436.579   -42346.877    555.30553   0.97851172 
   42700    272.40044   -1023.2812    127615.19   -38986.939    3384.3075   -42371.247    557.11538   0.97726616 
   42800     275.7465   -966.30649    127505.23   -38951.339     3425.879   -42377.218    558.53374   0.97810895 
   42900    275.88876   -1161.8558    127544.56   -38926.415    3427.6464   -42354.061    559.17924    0.9778073 
   43000     273.2334   -890.66713    127441.56   -39034.294    3394.6562   -42428.951    560.71815   0.97859756 
   43100    274.83942   -1069.4929    127440.59   -39042.383    3414.6095   -42456.993    561.91307   0.97860504 
   43200    274.32378   -859.17439    127726.81   -39009.208    3408.2032   -42417.411    564.72969   0.97641212 
   43300    279.26833   -1229.9409     127551.6    -39025.44    3469.6343   -42495.074    565.86499   0.97775338 
   43400    273.70822   -1005.4123     127459.1   -39048.373    3400.5554   -42448.929      567.348   0.97846291 
   43500    275.68551   -1298.6142     127492.2   -38946.209    3425.1213    -42371.33    568.70118    0.9782089 
   43600    277.49888   -1151.7573    127204.48   -38938.604    3447.6506   -42386.255    569.81729   0.98042148 
   43700    279.30323    -862.3588    127123.16   -38831.721    3470.0679   -42301.788     570.7852   0.98104866 
   43800    275.49612   -894.21484    127131.39   -38886.749    3422.7683   -42309.518    573.77136   0.98098513 
   43900    275.99904   -994.81189    127448.83   -38880.555    3429.0166   -42309.572    575.94142   0.97854181 
   44000    277.08276   -1042.1626    127285.53   -38928.426    3442.4807   -42370.906    576.91421   0.97979721 
   44100    278.79288   -1027.7584    127438.54   -38919.086    3463.7273   -42382.814    578.35873   0.97862075 
   44200     278.3334   -1150.0407    127183.77   -38955.747    3458.0186   -42413.765    578.50882    0.9805811 
   44300    273.09319   -876.90856    127306.91   -39028.291    3392.9143   -42421.205    580.38278   0.97963266 
   44400    272.93163   -951.34587    127524.62   -39077.737     3390.907   -42468.644    582.21214   0.97796021 
   44500    273.19418   -1103.6727    127593.52   -39036.064     3394.169   -42430.233    583.82193   0.97743213 
   44600    275.27551   -1078.9229    127487.98   -39090.192    3420.0275    -42510.22    584.54323   0.97824129 
   44700    271.33088    -1042.591    127307.82   -39168.892    3371.0193   -42539.911    585.98023   0.97962563 
   44800     267.3996   -962.17669    127262.22   -39128.811    3322.1769   -42450.988    586.92639   0.97997664 
   44900    270.34961   -1180.9145    127303.21   -39104.855     3358.828   -42463.683     589.5573   0.97966112 
   45000    273.43435    -1014.837    127345.45   -39017.896    3397.1529   -42415.049    591.83731   0.97933614 
   45100    276.14792   -848.10659    127494.33   -38994.326    3430.8663   -42425.193    593.26588   0.97819252 
   45200    278.88406   -1001.8234    127652.39   -38917.979    3464.8601   -42382.839    595.98943   0.97698137 
   45300     273.1833   -974.06877    127810.92   -38985.858    3394.0338   -42379.891    596.96052   0.97576955 
   45400    271.58408   -1238.5296    127742.45   -39002.332     3374.165   -42376.497    597.18905   0.97629254 
   45500    276.49286   -915.53545    127358.46   -38967.131    3435.1518   -42402.283     597.7299   0.97923615 
   45600     274.4185   -1204.3937     127371.5   -39014.952    3409.3799   -42424.332    599.99528   0.97913589 
   45700    273.43552   -1016.2436    127099.74   -39009.371    3397.1673   -42406.538    600.50883    0.9812294 
   45800    273.79112    -923.9873    127204.95   -38963.481    3401.5854   -42365.067     602.7171   0.98041789 
   45900    279.78781   -1083.9336     127059.3   -38917.953    3476.0883   -42394.042    604.24268   0.98154172 
   46000    287.83694   -999.61037    127245.09   -38836.474    3576.0908   -42412.565     606.5864   0.98010855 
   46100    278.51948   -1131.3075    127387.26    -38838.69    3460.3306   -42299.021    607.55598   0.97901476 
   46200    281.35241   -1012.3457    127208.02   -38749.443     3495.527    -42244.97    607.88377   0.98039421 
   46300    283.02419   -805.29294    127184.44   -38775.617    3516.2971   -42291.914    608.89027   0.98057592 
   46400     281.7978   -1107.7703    127514.18   -38795.157    3501.0604   -42296.218    611.96238   0.97804026 
   46500    279.53971   -944.35362    127449.34   -38815.337    3473.0059   -42288.343    612.60522   0.97853784 
   46600    278.89282   -903.39407    127656.95   -38873.618     3464.969   -42338.587    614.95028   0.97694646 
   46700    279.77319   -1100.9372    127658.73    -38865.15    3475.9066   -42341.057    616.43408   0.97693279 
   46800    275.12516   -988.82284    127652.76   -39004.561    3418.1595   -42422.721    618.52128   0.97697854 
   46900    275.78907   -1031.5112    127701.46   -39002.805    3426.4079   -42429.213    619.77017   0.97660593 
   47000    276.22002   -1117.5539    127314.09   -38916.194    3431.7621   -42347.956    620.17372   0.97957736 
   47100    278.16768   -886.67516    127101.24   -38916.737    3455.9598   -42372.697    621.65631   0.98121782 
   47200    276.06924   -1024.5054     127247.8   -38925.976    3429.8887   -42355.865    623.88455   0.98008771 
   47300    270.36735   -835.59763    126972.37   -38995.099    3359.0484   -42354.147    624.33318    0.9822137 
   47400    271.52919   -920.12743    126688.05   -38981.554     3373.483   -42355.037    624.24554   0.98441803 
   47500    277.09342   -1052.9431    126686.83   -38929.647    3442.6132    -42372.26      626.166   0.98442754 
   47600    277.44094    -943.8429    126555.57   -38821.935    3446.9307   -42268.866    627.09051   0.98544853 
   47700    281.30924   -995.62005    126732.25   -38809.705    3494.9905   -42304.696    628.61624   0.98407471 
   47800     275.8221   -1086.6152    126858.46   -38823.582    3426.8183   -42250.401    630.37293    0.9830957 
   47900    272.78394   -1127.1818    126787.16   -38896.726    3389.0721   -42285.798    631.12673   0.98364851 
   48000    271.23728   -891.43447    126760.46   -38981.449    3369.8564   -42351.305    632.89053   0.98385574 
   48100     273.9438   -1015.5527    126832.74   -39011.211    3403.4822   -42414.694    633.87836   0.98329502 
   48200    277.80542   -893.64391    127042.73   -39043.058    3451.4591   -42494.517    635.66159   0.98166977 
   48300    275.06574   -804.85355     127115.9   -39004.234    3417.4213   -42421.655    638.32962   0.98110464 
   48400    275.93962   -975.01419    127292.08    -38982.11    3428.2784   -42410.388    640.41067   0.97974675 
   48500    272.48435   -870.63983    127381.31   -38903.102      3385.35   -42288.452    640.53951   0.97906047 
   48600    273.24205   -845.86086    127375.85   -39010.196    3394.7637   -42404.959    641.43116    0.9791024 
   48700    276.43724   -878.29573    127859.41   -38935.613    3434.4608   -42370.074    643.81847   0.97539952 
   48800    275.96001    -1097.006     127900.7   -38930.002    3428.5317   -42358.534    644.40837   0.97508461 
   48900    275.93421   -1092.0769    127674.46   -38962.882    3428.2111   -42391.093    645.63256    0.9768125 
   49000    275.45057   -1074.6205    127989.36    -38965.77    3422.2024   -42387.972     647.5176   0.97440917 
   49100    272.56553   -1002.4387     127841.3   -38988.119    3386.3586   -42374.478    649.19781   0.97553764 
   49200     269.4816   -1034.5956    127855.79    -39009.86    3348.0438   -42357.903    650.81189   0.97542712 
   49300    278.28225   -1033.5935    127696.28   -38983.583    3457.3832   -42440.966    651.80041   0.97664552 
   49400    280.31935    -884.7274    127457.15   -38931.843    3482.6922   -42414.535    652.08471   0.97847792 
   49500    279.49688   -1062.5403    127591.53   -38931.389    3472.4738   -42403.862    654.03773   0.97744732 
   49600    279.80366    -1023.848    127569.62   -38968.884    3476.2852   -42445.169    656.24252    0.9776152 
   49700    271.70066   -1029.6831    127539.85   -39022.507    3375.6134    -42398.12    657.37051   0.97784344 
   49800    273.66689   -1168.3871    127352.05   -38989.533    3400.0419   -42389.575    657.38519    0.9792854 
   49900    278.94626   -1045.2741    127222.55   -38995.656    3465.6328   -42461.289    658.39309   0.98028219 
   50000    279.01349   -855.01676     127593.2    -38914.21    3466.4682   -42380.678     660.4964   0.97743454 
   50100    278.20563   -1036.0284    127352.01   -38970.131    3456.4313   -42426.563    661.21618   0.97928574 
   50200    274.89279   -1053.0222    127386.33   -38981.734    3415.2724   -42397.007    662.35675    0.9790219 
   50300    273.77584   -1005.5667     127040.4   -39006.388    3401.3955   -42407.783    662.36526   0.98168772 
   50400    276.13276   -842.09431    127380.78   -38912.603     3430.678   -42343.281    664.99107   0.97906453 
   50500    277.79851   -1038.8468    127449.45   -39035.327    3451.3732     -42486.7    666.64133   0.97853699 
   50600    276.23839   -657.38187    127534.62    -39023.26    3431.9903   -42455.251    668.59573   0.97788352 
   50700    267.98018   -980.29582     127572.5   -39026.788    3329.3901   -42356.178    670.24447   0.97759315 
   50800    270.65964   -1017.8367    127574.57   -39081.508    3362.6798   -42444.187    671.14526    0.9775773 
   50900    275.25446   -1037.8411    127670.11   -39051.341    3419.7658   -42471.107     672.1431   0.97684575 
   51000    275.94487    -918.1983    127492.14   -38977.343    3428.3436   -42405.687    673.00878   0.97820936 
   51100    267.99402   -1086.8193    127374.11   -39044.461     3329.562   -42374.023    674.64221   0.97911583 
   51200    271.17717   -1060.9715    127146.65   -39057.025    3369.1096   -42426.135    675.97372   0.98086742 
   51300    268.86564   -944.08217    126984.42    -39084.14    3340.3911   -42424.532    676.45534   0.98212055 
   51400    271.18205   -879.32118     127363.4   -39075.918    3369.1702   -42445.088    678.85281   0.97919812 
   51500    269.68304   -1303.6558    127330.94   -39105.917    3350.5465   -42456.464    679.49569   0.97944779 
   51600    271.59957   -1003.1355    126815.69   -39088.459    3374.3575   -42462.816    679.08621   0.98342727 
   51700    270.43044   -846.09942    126966.31   -39095.637    3359.8322   -42455.469    680.82824    0.9822606 
   51800    272.49241   -888.97311    127054.84   -39009.713    3385.4502   -42395.163    682.77427   0.98157619 
   51900    275.44279   -1112.4025    126911.52   -39078.848    3422.1057   -42500.954    683.17188   0.98268464 
   52000    269.56814   -1069.8083    126828.66   -39161.888     3349.119   -42511.007    684.93927   0.98332664 
   52100    269.36545   -922.93312    126992.88   -39154.603    3346.6007   -42501.203    688.22408   0.98205512 
   52200    273.22537   -957.74692    127248.74   -39058.469    3394.5565   -42453.026    689.46838   0.98008044 
   52300    269.78354    -859.4065    127439.52   -39091.485    3351.7951    -42443.28    691.00646   0.97861322 
   52400    270.29378   -780.96438    127252.32   -39043.339    3358.1344   -42401.473    691.51715   0.98005291 
   52500    270.59702    -965.8828    127498.94   -39059.739    3361.9018   -42421.641     695.1564   0.97815714 
   52600    277.06429   -898.23231    127576.09   -38969.972    3442.2513   -42412.223    697.01057   0.97756567 
   52700      274.785   -1179.3906    127403.76   -38994.539    3413.9333   -42408.472    698.08708   0.97888791 
   52800    275.51649   -989.29518    127066.05   -38994.463    3423.0213   -42417.485    697.01318   0.98148958 
   52900    275.94365   -971.03243    127036.92    -38966.45    3428.3284   -42394.778    699.01255   0.98171467 
   53000    270.69069   -1020.9104    127042.87   -38985.111    3363.0655   -42348.177    700.70219   0.98166862 
   53100    279.07735   -1011.7805    127279.02   -38946.847    3467.2615   -42414.109    703.24446   0.97984728 
   53200     276.9143   -830.16977    127365.19   -38938.139    3440.3878   -42378.527     705.8522   0.97918441 
   53300    279.42781   -972.97647    127520.18   -38942.223    3471.6157   -42413.839     708.1612   0.97799425 
   53400    272.73409   -886.96817    127711.72   -38984.154    3388.4528   -42372.606    710.35819   0.97652746 
   53500    277.91795   -1108.3467    127727.37   -39097.113    3452.8571    -42549.97    711.49895   0.97640785 
   53600    273.31531   -1098.1006    127601.58   -39118.305    3395.6739   -42513.978    711.61137    0.9773704 
   53700    271.29891   -1063.5939    127635.51   -39123.593     3370.622   -42494.215    713.18483   0.97711059 
   53800    270.26122   -1030.7646    127673.79   -39142.077    3357.7298   -42499.806    714.34484   0.97681762 
   53900    274.33843   -934.01522    127662.88   -39045.843    3408.3851   -42454.228    713.50136   0.97690103 
   54000    271.66646   -760.54288    127623.25   -39072.491    3375.1885    -42447.68    714.14677   0.97720442 
   54100    268.65067   -1161.8481    127627.72   -39061.932    3337.7203   -42399.652    715.86663   0.97717018 
   54200    273.52374   -907.58276    127816.04   -39055.443    3398.2634   -42453.707    717.34408   0.97573045 
   54300    274.77498   -1003.9054    127903.86   -39061.633    3413.8089   -42475.442    718.37796   0.97506054 
   54400    270.30956   -1023.1971    127707.92   -39067.405    3358.3303   -42425.736    719.09513   0.97655653 
   54500    270.41185   -938.57041    127466.48   -39059.286    3359.6012   -42418.887     719.6694   0.97840628 
   54600    274.56966   -990.55269    127510.34   -39038.059    3411.2579   -42449.317    720.74138    0.9780697 
   54700    278.13221   -990.97427    127520.98   -38936.642    3455.5192   -42392.161    722.48499   0.97798815 
   54800    273.60286   -970.86783    127287.18   -38950.627    3399.2464   -42349.873     722.8848   0.97978444 
   54900    273.21899   -988.66626    127356.26   -39006.241    3394.4772   -42400.718    724.43909   0.97925304 
   55000    275.50129   -924.79477    127697.57   -39056.349    3422.8325   -42479.182    726.61903   0.97663565 
   55100    275.47016   -1085.2813    127648.79   -39115.318    3422.4458   -42537.764    728.12633   0.97700889 
   55200    272.11352   -1093.3713    127643.05   -39078.522    3380.7428   -42459.264    729.61718   0.97705287 
   55300    274.23973   -1075.1851    127406.57   -39100.563    3407.1589   -42507.722    729.12631   0.97886633 
   55400    276.96103   -897.22199    127491.15   -39068.472    3440.9683   -42509.441    730.05821   0.97821694 
   55500    272.45113   -1068.2024    127250.79   -39054.384    3384.9373   -42439.321    730.52168   0.98006469 
   55600    276.08703   -908.61291    127320.67   -38936.723    3430.1097   -42366.832    731.03555   0.97952675 
   55700    273.81968    -1077.001    127503.32   -39022.469    3401.9402   -42424.409    733.91153   0.97812362 
   55800    274.75686   -1035.6683    127495.16   -38998.532    3413.5837   -42412.116    736.14815   0.97818618 
   55900    274.39327   -1053.8223    127459.78   -38964.028    3409.0665   -42373.094    736.48524    0.9784577 
   56000    280.20533   -849.41078    127580.31   -38922.647    3481.2756   -42403.922    738.44711   0.97753329 
   56100    278.05958   -903.93116    127543.16   -38921.144    3454.6167   -42375.761    739.86789   0.97781808 
   56200    276.41779   -1093.2561    127481.51   -38954.084    3434.2191   -42388.303    741.20731   0.97829094 
   56300    278.08364   -1068.8851     127543.9   -38935.893    3454.9157   -42390.809    743.01067   0.97781237 
   56400    277.00591   -775.30622    127567.34   -38926.961    3441.5259   -42368.487    744.57537   0.97763269 
   56500    278.12897   -1136.2066    127658.36   -38947.028    3455.4788   -42402.506    746.48015   0.97693567 
   56600    272.20757   -985.39687     127374.4   -39053.408    3381.9113   -42435.319    747.01811   0.97911355 
   56700    272.49702   -836.55398    127396.26   -39027.759    3385.5074   -42413.267    748.79092   0.97894555 
   56800    268.17922   -919.60032    127507.18   -39106.592     3331.863   -42438.455    751.15427   0.97809395 
   56900    274.70684   -882.55417    127757.17   -38982.967    3412.9623    -42395.93     752.9451   0.97618007 
   57000    269.84669    -1030.934       127865   -38905.993    3352.5797   -42258.573    753.99253   0.97535681 
   57100    282.57357   -1079.4168    127787.86   -38911.055    3510.6986   -42421.754    755.35732   0.97594562 
   57200    276.49337    -957.4269    127535.31   -38966.948    3435.1581   -42402.106    753.85407   0.97787824 
   57300    272.58069   -904.61574    127269.08   -39018.874    3386.5469   -42405.421    754.18011    0.9799238 
   57400    268.33309   -1167.4773    127143.28   -39091.866    3333.7747   -42425.641    755.05971   0.98089343 
   57500    269.46255   -957.50547    127048.35   -39088.493    3347.8072   -42436.301     755.9823   0.98162635 
   57600    268.45789   -1134.4143     127038.6   -39133.696    3335.3252   -42469.021    757.59113   0.98170166 
   57700     271.3025    -953.6353    127019.43   -39112.517    3370.6666   -42483.183    758.36208    0.9818498 
   57800    271.56252   -1051.4808    127067.41   -39211.907    3373.8972   -42585.804    759.90446    0.9814791 
   57900    271.79787   -852.79826    127199.43   -39194.179    3376.8212       -42571    762.51708   0.98046036 
   58000    272.19382   -1106.4526    127502.77   -39148.709    3381.7404    -42530.45    764.46996   0.97812783 
   58100    270.24549   -924.31387       127572   -39130.507    3357.5343   -42488.041     765.7558   0.97759698 
   58200    273.99765   -1083.7443    127567.32   -39078.982    3404.1512   -42483.133    766.29953   0.97763289 
   58300    276.46426   -1020.6416    127151.16   -39031.292    3434.7965   -42466.088    765.94154   0.98083259 
   58400    275.51481   -1168.4918    126929.24   -38969.748    3423.0004   -42392.749    766.43502   0.98254749 
   58500    277.31081   -1080.8855    127173.89   -38958.981    3445.3141   -42404.295    768.77257   0.98065732 
   58600    281.17229   -825.06223    126927.16   -39003.915    3493.2891   -42497.204    770.56693   0.98256355 
   58700    274.16576   -993.48402    127034.11   -38952.475    3406.2399   -42358.715     772.7537   0.98173636 
   58800    273.20838   -759.93995    127204.05    -38916.44    3394.3454   -42310.785    775.83663   0.98042477 
   58900     283.0821    -1039.291    127312.08    -38969.16    3517.0166   -42486.177    777.29445   0.97959286 
   59000    273.57891   -1020.5774    127407.87   -39025.105    3398.9489   -42424.054     779.4464   0.97885637 
   59100    278.42586   -1049.8698    127260.16   -38973.508    3459.1674   -42432.676     780.4501   0.97999249 
   59200    274.14396   -1043.4827    127276.65   -39013.561    3405.9691    -42419.53    782.46287   0.97986554 
   59300    274.81456   -963.32659    127492.92   -39015.914    3414.3006   -42430.215     784.1809   0.97820336 
   59400     271.2118   -1078.3156    127244.06   -39049.167    3369.5398   -42418.707     783.8441   0.98011653 
   59500    271.02752    -1027.846    127119.53   -39011.303    3367.2503   -42378.554    784.33171   0.98107663 
   59600    273.01271   -983.34181    127060.88   -39011.354    3391.9144   -42403.269    784.95148   0.98152949 
   59700    273.07363   -907.60327     127212.3   -39015.266    3392.6712   -42407.937    787.20324   0.98036117 
   59800    274.07149   -956.86965     127228.4   -38987.385    3405.0686   -42392.453     789.1313   0.98023717 
   59900    272.77565   -864.90862    127428.66   -39007.702    3388.9692   -42396.671    792.19117   0.97869667 
   60000    265.93019   -912.98643    127384.34   -39020.345     3303.921   -42324.266    791.08608   0.97903719 
   60100    274.91518   -859.50727    127423.65   -39023.683    3415.5506   -42439.234    791.99212   0.97873512 
   60200    274.81399   -977.91425     127679.2   -38998.071    3414.2935   -42412.364     793.5647   0.97677617 
   60300    276.00914   -1084.7131    127735.58   -38952.854    3429.1421   -42381.996    795.17295   0.97634511 
   60400     274.8309   -1002.4498    127457.41   -38929.492    3414.5035   -42343.995    795.76944   0.97847593 
   60500    283.26863   -950.81192    127449.13   -38866.147     3519.334   -42385.481    796.08163   0.97853944 
   60600    275.36447   -959.92216    127544.83   -38945.414    3421.1326   -42366.546     798.4911   0.97780522 
   60700      272.494   -1143.1501     127694.1   -38952.676    3385.4699   -42338.146     800.2489   0.97666219 
   60800    276.01536   -1050.1306    127485.25   -39019.012    3429.2194   -42448.231    799.58356   0.97826226 
   60900     275.9814   -1170.2089    127577.43   -38933.137    3428.7974   -42361.934    799.16492   0.97755536 
   61000    273.47867   -848.22901    127239.81   -38972.567    3397.7034    -42370.27    799.30062   0.98014928 
   61100    275.02032   -794.37777    127080.06   -39026.502    3416.8569   -42443.359    800.11262   0.98138138 
   61200    273.35391   -971.71859     127190.8   -39047.549    3396.1535   -42443.702    801.53903   0.98052695 
   61300    275.03759   -681.57564    127350.72   -39036.521    3417.0715   -42453.592    802.22782   0.97929566 
   61400    275.80745   -996.57872    127556.92   -39036.723    3426.6363   -42463.359    804.24277   0.97771259 
   61500    268.72559   -1088.2874    127669.63   -39122.592    3338.6511   -42461.243    807.09138   0.97684944 
   61600    278.83821    -963.6371    127309.85   -39115.327    3464.2904   -42579.617     805.8936   0.97961002 
   61700    271.55921   -808.36878    127628.86   -39051.279     3373.856   -42425.135    808.67808   0.97716146 
   61800    268.35647   -1059.3083    127268.52   -39133.976    3334.0652   -42468.041    808.78485   0.97992815 
   61900    271.51264   -955.24877    127327.52   -39200.343    3373.2774   -42573.621    808.65471   0.97947405 
   62000    272.65459   -806.26487    127341.27   -39125.299     3387.465   -42512.764    809.76062   0.97936832 
   62100    273.17635   -789.05767    127321.25   -39090.782    3393.9474   -42484.729    810.23197   0.97952229 
   62200    273.99176   -1011.2677    127462.55   -39057.903     3404.078   -42461.981    811.41498   0.97843646 
   62300    277.68496   -1061.8189    127235.39   -38988.601    3449.9625   -42438.564    810.86568   0.98018327 
   62400    276.46154   -1055.4691     127260.8   -39029.456    3434.7626   -42464.219    812.15307   0.97998755 
   62500     277.6097    -1090.675    127148.54   -38962.717    3449.0274   -42411.745     812.7935   0.98085285 
   62600    271.35949   -933.19433     127013.3   -39013.727    3371.3747   -42385.102    814.68954   0.98189721 
   62700    275.59316   -1019.4164    127178.93   -39073.854    3423.9739   -42497.828     817.0554   0.98061843 
   62800    272.39466   -888.85717    127672.17    -39081.97    3384.2357   -42466.205    821.21131   0.97682999 
   62900     273.7493   -937.94545    127738.66   -39039.411    3401.0658   -42440.477    823.18905   0.97632151 
   63000    276.34482    -1032.049    127584.82   -39009.722    3433.3125   -42443.034    824.74937   0.97749879 
   63100    278.15429   -960.17871    127737.36   -38915.506    3455.7934     -42371.3    826.70969   0.97633146 
   63200    278.76101   -981.17773    127887.09   -38891.196    3463.3313   -42354.528    828.97324   0.97518835 
   63300    279.74778   -1042.4543    127808.11   -38955.791     3475.591   -42431.382    829.38289   0.97579096 
   63400     278.1087   -864.34178    127867.88   -38916.079     3455.227   -42371.306    830.00456   0.97533487 
   63500    277.42605   -1116.8339    128129.71   -38891.987    3446.7457   -42338.733    832.44912   0.97334181 
   63600    272.41498   -1219.9884    127791.98    -38989.88    3384.4882   -42374.368    832.32965   0.97591419 
   63700    277.08324   -999.80385    127431.74   -38964.405    3442.4866   -42406.891    832.59659   0.97867298 
   63800    269.88972   -1065.9548    127591.96   -39009.229    3353.1142   -42362.343    835.27872   0.97744408 
   63900    268.06339   -1194.8326    127504.24    -39174.51    3330.4239   -42504.934     836.0798   0.97811649 
   64000    271.38757   -1023.3705    127424.38    -39109.58    3371.7236   -42481.304    836.73148   0.97872952 
   64100    272.37761   -919.24364     127503.4   -39053.341    3384.0238   -42437.365    838.45716   0.97812297 
   64200    274.60846   -860.76069     127823.7   -38957.615      3411.74   -42369.355    841.08153   0.97567198 
   64300    274.38994   -1152.4455     127697.8   -39023.147    3409.0251   -42432.172    842.41018   0.97663389 
   64400    275.51989   -922.39687    127831.15   -38869.457    3423.0636   -42292.521    845.15862    0.9756151 
   64500    278.04918   -1217.8714    128029.29   -38944.023    3454.4876    -42398.51    848.34347   0.97410523 
   64600    280.07533   -1011.0637    127766.08   -38949.011    3479.6605   -42428.671    847.92424   0.97611198 
   64700    274.15856   -1006.6126    127630.77   -38994.414    3406.1504   -42400.565    848.14416   0.97714685 
   64800     278.7428   -1056.8413    127552.31   -39010.484     3463.105   -42473.589    848.05872   0.97774792 
   64900    273.39878    -968.5935    127433.79   -39025.959    3396.7109    -42422.67    848.40816   0.97865725 
   65000    276.24675   -1141.1828     127164.9   -38998.912    3432.0942   -42431.006    847.94419    0.9807266 
   65100    278.15348   -984.87481    127119.05   -38953.065    3455.7834   -42408.848    848.65255   0.98108034 
   65200    277.03542    -1036.905    127284.37   -38997.641    3441.8925   -42439.533    851.29434   0.97980611 
   65300    270.18897   -1050.7064    127142.87   -38988.759    3356.8322   -42345.591     852.1841   0.98089654 
   65400    271.88162   -1224.1763    127331.48   -38948.797    3377.8617   -42326.659    854.35931   0.97944358 
   65500    273.92956   -930.24172    127567.49   -38886.564    3403.3053   -42289.869    857.11903   0.97763158 
   65600    274.83095    -1198.177    127607.68   -38926.361    3414.5042   -42340.866    859.15487   0.97732362 
   65700    272.02451    -1135.821    127436.05   -38969.857    3379.6369   -42349.494    859.76502   0.97863988 
   65800    268.43399   -871.61475    127437.59   -39046.326    3335.0283   -42381.354    861.76478   0.97862808 
   65900    272.25276   -945.16572       127559   -39044.924    3382.4727   -42427.397    863.63099   0.97769661 
   66000    273.14952   -1094.7845    127783.13     -38979.7    3393.6141   -42373.314    866.50551   0.97598179 
   66100    281.86173   -953.46111    127835.34   -38910.305    3501.8547   -42412.159    867.15049   0.97558318 
   66200     280.4023   -1210.9619    127978.79   -38838.717    3483.7227    -42322.44    869.65113   0.97448961 
   66300    277.99197   -984.23948    127985.87   -38777.646    3453.7768   -42231.423    871.61006   0.97443573 
   66400    279.70309   -993.83158     127872.4   -38863.956    3475.0357   -42338.992    872.67469   0.97530044 
   66500    276.87684   -1032.4823    127878.24   -38913.329    3439.9224   -42353.251    874.41504   0.97525585 
   66600    279.59617   -949.93308    127956.61   -38935.749    3473.7074   -42409.456    876.06076   0.97465856 
   66700    276.25902   -1332.3026    127493.52    -39027.23    3432.2465   -42459.476    875.19045   0.97819876 
   66800    274.36609     -887.914    127495.41   -39045.178    3408.7287   -42453.906    876.22939   0.97818426 
   66900    271.95993   -1016.0711    127678.25   -38971.936    3378.8346   -42350.771    876.89641   0.97678344 
[...]
   84800     271.7387   -994.58636    127187.77   -39134.729    3376.0861   -42510.815    1108.2178   0.98055027 
   84900    271.40877   -1055.3004    127514.76   -39116.989    3371.9869   -42488.975     1110.691   0.97803584 
   85000    271.97329   -893.81499    127666.65   -39090.289    3379.0005    -42469.29    1112.5322    0.9768722 
   85100     273.0846   -1089.2396     127633.8   -39042.813    3392.8075   -42435.621     1113.896   0.97712364 
   85200    276.80432   -861.23787    127751.03   -39005.191    3439.0214   -42444.212    1116.8013   0.97622695 
   85300     272.6245   -939.59284    127445.03   -39051.628    3387.0913    -42438.72    1116.5782   0.97857096 
   85400    270.21399    -1124.963    127640.25   -39037.034     3357.143   -42394.177    1119.5101   0.97707425 
   85500    271.93698   -1041.0549     127397.5    -39034.47    3378.5495   -42413.019    1118.3956   0.97893606 
   85600    273.25918   -971.46739    127624.77   -38991.772    3394.9766   -42386.748    1121.5458   0.97719275 
   85700    277.18342   -813.35955    127651.56   -38993.088    3443.7313    -42436.82    1123.9767   0.97698767 
   85800    273.04681   -1002.3688    127659.84   -39056.219     3392.338   -42448.557    1125.0654   0.97692432 
   85900    274.96538   -964.62742    127672.64   -38983.653    3416.1744   -42399.827    1126.7299   0.97682641 
   86000    278.40353   -932.94847     127677.7   -38974.538      3458.89   -42433.428     1127.386   0.97678771 
   86100    277.02756    -970.3764    127847.78   -38963.446     3441.795   -42405.241    1130.0229   0.97548819 
   86200    273.63927   -1021.3951    127517.96   -38985.055    3399.6988   -42384.754    1129.1006   0.97801128 
   86300    276.58116   -1115.1293    127548.12   -38929.119    3436.2488   -42365.368    1130.4873   0.97778005 
   86400      272.432    -1021.058    127539.26   -39014.132    3384.6996   -42398.831    1131.3146   0.97784797 
   86500    272.62453   -1009.2663    127577.78   -38989.635    3387.0916   -42376.726     1132.085   0.97755273 
   86600     276.4825    -1049.751    127722.56   -38945.547     3435.023    -42380.57    1135.3383   0.97644459 
   86700    280.37379   -981.03188    127555.64   -38936.326    3483.3685   -42419.695    1136.1894   0.97772237 
   86800    272.68663   -908.45372    127679.23    -38954.43    3387.8631   -42342.293    1138.2203   0.97677599 
   86900    273.47113   -893.73975    127865.34   -38992.833    3397.6098   -42390.443    1140.1281   0.97535428 
   87000    279.87734   -1152.2517    127558.47   -38935.201    3477.2006   -42412.402    1140.2129   0.97770065 
   87100     271.8814   -999.00355     127482.5   -38955.128     3377.859   -42332.987    1139.8579    0.9782833 
   87200    267.49435   -1030.2518    127426.34   -39009.607    3323.3541   -42332.961    1140.4128   0.97871445 
   87300    271.89872   -745.51661       127463   -38921.078    3378.0742   -42299.152    1140.0913   0.97843299 
   87400    274.02089   -938.31071     127292.5   -38952.806      3404.44   -42357.246     1140.159   0.97974351 
   87500    275.47544   -1108.6223    127208.77   -38965.388    3422.5113     -42387.9    1141.4606   0.98038839 
   87600    276.11961    -976.7068    126964.02   -38989.483    3430.5146   -42419.998     1139.944   0.98227834 
   87700    276.47097   -870.65422    127114.25   -39006.611    3434.8798   -42441.491    1142.4739   0.98111737 
   87800     277.8717   -1020.0724    127141.27   -39002.733    3452.2826   -42455.016    1143.9191    0.9809089 
   87900    277.55314   -970.76285    127486.08    -39002.18    3448.3247   -42450.505    1148.0259   0.97825587 
   88000    271.54141   -1019.7199    127402.91   -39070.606    3373.6349   -42444.241    1149.0902   0.97889449 
   88100    274.56026   -981.24832    127678.93   -39038.144    3411.1411   -42449.286    1150.9994    0.9767783 
   88200     272.5348   -830.46063    127689.42   -39006.054    3385.9768    -42392.03    1153.5023   0.97669799 
   88300    280.93151   -997.03635    127589.12   -38952.398    3490.2977   -42442.696    1153.3514   0.97746579 
   88400    273.62776   -1199.5657    127500.26   -39068.815    3399.5557   -42468.371    1155.3312   0.97814704 
   88500    271.28142   -1005.0243       127336    -39168.99    3370.4047   -42539.395    1154.9402   0.97940883 
   88600     275.4189   -901.46766    127676.28   -39020.941    3421.8089    -42442.75    1158.9124   0.97679851 
   88700    278.75523    -696.9445    127952.64   -38952.743    3463.2595   -42416.003    1162.8216   0.97468879 
   88800    276.52932   -873.55329    127893.44   -38958.198    3435.6048   -42393.802    1162.2578   0.97513994 
   88900    279.51224   -1007.4673    127994.76   -38913.373    3472.6646   -42386.038    1164.1801   0.97436805 
   89000    282.91121   -1004.0457    127943.06   -38934.505    3514.8935   -42449.399    1165.1105    0.9747618 
   89100    276.95218   -1007.1258    127733.61   -38922.131    3440.8584    -42362.99    1164.5219   0.97636013 
   89200    271.03444   -914.56896    127688.74   -39035.073    3367.3363   -42402.409    1165.5326   0.97670325 
   89300    274.89346    -1053.363    127544.98   -39048.539    3415.2808    -42463.82    1165.1688   0.97780411 
   89400    270.55781   -971.66705    127495.45   -39089.994    3361.4147   -42451.409    1166.4125   0.97818395 
   89500    277.36856   -852.20263    127413.61   -39102.131    3446.0315   -42548.162    1169.3151   0.97881224 
   89600    268.25817   -1179.5461    127187.57   -39172.109    3332.8439   -42504.953    1167.6146   0.98055179 
   89700    271.23542   -883.56347       126902   -39229.786    3369.8333   -42599.619    1167.9124   0.98275836 
   89800    267.38113   -736.98058    126756.99   -39176.815    3321.9475   -42498.762    1166.9661   0.98388266 
   89900    274.65399   -730.70675    127082.79   -39114.353    3412.3056   -42526.658     1171.083   0.98136026 
   90000    267.28303   -972.76979    126994.73   -39206.643    3320.7288   -42527.372    1172.2039   0.98204078 
   90100    278.26804   -1023.7763    126830.03   -39058.205    3457.2067   -42515.412    1171.4166   0.98331602 
   90200    271.77562   -981.99115    127027.32   -39118.616    3376.5448   -42495.161    1174.1709    0.9817888 
   90300    273.76276   -1032.8096    126986.68   -39161.811    3401.2329   -42563.044    1174.2735   0.98210304 
   90400    273.85526   -843.11597    127242.91   -39150.917    3402.3822   -42553.299    1177.6507   0.98012536 
   90500    271.61933   -955.98596    127574.06   -39113.121     3374.603   -42487.724    1181.5886   0.97758118 
   90600    273.26791   -1070.8123    127465.63   -39083.527     3395.085   -42478.612     1183.404   0.97841279 
   90700    276.16864   -857.84384    127314.43    -39036.93    3431.1237   -42468.053    1183.3471   0.97957481 
   90800    279.50732   -1097.6174    127741.27   -38997.616    3472.6035   -42470.219    1186.3729   0.97630155 
   90900    274.07444   -1011.3776    127313.38   -39022.779    3405.1054   -42427.885    1186.0003   0.97958288 
   91000    262.24035   -1027.5795    127293.22   -39124.436    3258.0784   -42382.515    1187.2913   0.97973796 
   91100    268.15612   -831.40183    127096.63   -39126.287     3331.576   -42457.864    1187.2689   0.98125344 
   91200    272.00415   -892.93296    126966.53   -39103.188     3379.384   -42482.572    1188.4125   0.98225891 
   91300    274.86046   -985.36109    127044.39   -39090.253    3414.8708   -42505.124    1191.4946   0.98165693 
   91400    279.02334   -985.85526    127355.45   -38940.575    3466.5905   -42407.166    1194.8043   0.97925928 
   91500    277.45477   -909.38936    127389.06   -38957.953    3447.1025   -42405.056    1196.9967    0.9790009 
   91600    276.48495   -1133.5957    127440.18   -38936.562    3435.0535   -42371.615    1198.8131   0.97860816 
   91700    273.39789   -917.65219    127162.13   -39012.961    3396.6999   -42409.661    1199.3954   0.98074796 
   91800    271.47734   -847.23428     127461.4   -39069.187    3372.8389   -42442.026    1201.3218   0.97844526 
   91900    271.71724   -880.52855    127626.68    -39006.16    3375.8194   -42381.979    1203.3371   0.97717815 
   92000    272.94542   -928.27789    127666.55   -38979.206    3391.0783   -42370.284    1203.8884   0.97687298 
   92100    270.85338   -1051.1514    127675.15   -39003.547    3365.0868   -42368.634    1204.7804   0.97680719 
   92200    270.89599   -1093.9351    127381.32   -39084.955    3365.6162   -42450.571    1204.8961   0.97906036 
   92300    274.58936   -934.56606    127428.79   -38999.715    3411.5027   -42411.218    1206.9099   0.97869569 
   92400    274.61103   -988.62019    127455.26   -38888.875     3411.772   -42300.647    1207.3758   0.97849242 
   92500    279.17793   -1108.2514    127496.17   -38909.299    3468.5112    -42377.81    1208.6076   0.97817841 
   92600    277.03094   -999.67545    127822.46    -38930.72    3441.8369   -42372.557    1211.5506   0.97568146 
   92700    277.11276   -990.36178    127717.81   -38954.817    3442.8534    -42397.67    1211.8338   0.97648095 
   92800    273.06934   -952.13446    127790.03   -38977.442    3392.6179    -42370.06    1212.8679   0.97592907 
   92900    271.67177   -1131.8932    127737.78   -39029.339    3375.2545   -42404.594    1212.7541   0.97632824 
   93000    278.84272   -992.06975    127612.54   -38955.044    3464.3465   -42419.391    1213.7954   0.97728643 
   93100    274.23471   -1089.8355     127547.7    -39061.95    3407.0965   -42469.047    1214.5725   0.97778322 
   93200    275.28743    -1200.379    127337.08   -38966.257    3420.1755   -42386.432    1214.1195   0.97940054 
   93300    277.11702   -878.55217     127181.7   -38966.018    3442.9064   -42408.925    1214.5895    0.9805971 
   93400    268.77854   -1021.2865    127400.57    -38976.74    3339.3089   -42316.049    1217.5966   0.97891248 
   93500    272.22116   -1108.4933     127432.3   -39019.516    3382.0801   -42401.596    1218.9526   0.97866868 
   93600    273.79611   -1049.1844    127354.17   -39012.287    3401.6473   -42413.934    1221.8398   0.97926912 
   93700    275.66482   -985.37168    127264.51   -39154.412    3424.8642   -42579.276    1222.0261   0.97995903 
   93800    271.72701    -943.5777    127539.53   -39118.447    3375.9407   -42494.388    1223.6508   0.97784591 
   93900     275.5527   -988.15441    127354.17   -39065.895    3423.4712   -42489.366    1224.6019   0.97926912 
   94000    273.32226   -764.05745    127047.75   -39025.612    3395.7602   -42421.372    1224.4029   0.98163098 
   94100    267.34297     -1152.36    127067.68   -39085.381    3321.4734   -42406.855     1225.236   0.98147697 
   94200    269.25968   -925.72985    127003.41   -39082.283    3345.2866    -42427.57    1226.4753   0.98197366 
   94300    271.53232    -1148.699    127226.95   -39063.487     3373.522   -42437.009    1229.2763    0.9802483 
   94400    278.68557   -1115.8205    127161.03   -39024.194     3462.394   -42486.588    1230.2616   0.98075649 
   94500    277.54068   -770.70021    127396.18   -38960.178    3448.1699   -42408.348    1232.3697   0.97894616 
   94600    282.52798    -1076.625    127303.43    -38881.45    3510.1322   -42391.582    1233.9206    0.9796594 
   94700    273.51486   -992.17481    127055.18   -39004.728     3398.153   -42402.881    1233.6219   0.98157351 
   94800    276.28493   -742.67924    127383.23   -39020.403    3432.5685   -42452.971    1237.7798   0.97904573 
   94900    275.32561   -1092.4056    127103.29   -39044.407    3420.6499   -42465.057    1235.2829   0.98120201 
   95000    279.24746    -1068.549    126985.88   -38955.457     3469.375   -42424.832    1234.8613   0.98210919 
   95100    284.59466   -1035.9755    127221.33   -38919.651    3535.8087    -42455.46    1237.5014   0.98029165 
   95200    278.57148   -799.05332    127202.69   -38958.899    3460.9766   -42419.876    1238.5302   0.98043528 
   95300    275.85242   -1151.1108    127232.11   -38967.527     3427.195   -42394.722    1241.2418   0.98020856 
   95400    275.29619    -901.2231    127142.26    -38877.72    3420.2843   -42298.004     1241.616    0.9809013 
   95500     278.4563   -892.63099    127331.88   -38908.094    3459.5456   -42367.639    1245.3101    0.9794405 
   95600     277.8085   -1004.5751    127326.19   -38936.584    3451.4973   -42388.082    1247.2391    0.9794843 
   95700    277.60125   -1094.9656    127175.59   -38902.435    3448.9224   -42351.357    1248.1186   0.98064423 
   95800    276.01188    -957.5648    127217.87   -38992.822    3429.1761   -42421.998    1248.7124   0.98031831 
   95900    271.87495   -980.55527    127092.71   -39036.304    3377.7788   -42414.082     1249.456   0.98128366 
   96000    270.87048   -897.81694    127293.85    -38985.82    3365.2993   -42351.119    1251.5593   0.97973318 
   96100    271.28408   -891.22319    127487.69   -39054.356    3370.4378   -42424.794     1255.091   0.97824348 
   96200    274.28003   -1079.4023    127254.44   -39026.737    3407.6596   -42434.397    1255.3617   0.98003655 
   96300    272.16208    -887.3397    127351.45    -39066.15    3381.3461   -42447.496    1257.8841   0.97929001 
   96400    275.36319   -932.35225    127511.05   -39035.725    3421.1168   -42456.842    1260.0637   0.97806431 
   96500    270.67193   -1123.2832    127226.31   -39018.139    3362.8324   -42380.972    1260.2921   0.98025326 
   96600    277.41685    -1150.218    127362.68   -38994.426    3446.6315   -42441.058    1262.3679    0.9792037 
   96700    272.65119   -1110.7979    127383.45   -39058.385    3387.4228   -42445.808    1263.5576     0.979044 
   96800    273.08695   -1096.2692    127050.88   -39157.403    3392.8367   -42550.239    1263.4567   0.98160676 
   96900    269.49204   -830.83835    127143.78   -39141.983    3348.1734   -42490.156    1265.4315   0.98088953 
   97000    275.44952   -1010.2665     127206.2   -39091.486    3422.1893   -42513.675    1266.3176   0.98040818 
   97100    275.99461   -1008.7839    127080.71   -39113.316    3428.9616   -42542.277    1265.6065   0.98137633 
   97200    269.13629   -1122.8586    126938.64   -39204.889    3343.7537   -42548.643    1266.1776   0.98247469 
   97300    266.15627   -988.84407    126864.32   -39158.078    3306.7298   -42464.807    1266.7151    0.9830503 
   97400    266.78311   -1101.2157    126929.09   -39189.184    3314.5177   -42503.702    1266.8776   0.98254861 
   97500    273.87665   -885.82719     127021.5   -39159.229     3402.648   -42561.877    1268.5465   0.98183382 
   97600    273.25032   -1107.3485    127075.08   -39059.781    3394.8664   -42454.648     1270.404   0.98141981 
   97700    272.02452   -1000.0231    126942.94   -39133.178    3379.6371   -42512.815    1271.0477   0.98244145 
   97800    275.89178   -766.90663    127018.12   -39049.184     3427.684   -42476.868    1272.6898   0.98185995 
   97900    273.16514   -805.18754    127228.79   -39030.912    3393.8081    -42424.72    1275.3703   0.98023411 
   98000    280.81664   -1009.9523    127530.16   -38935.405    3488.8704   -42424.275    1276.7177   0.97791776 
   98100    279.79303   -903.08745    127658.37   -38990.831    3476.1532   -42466.984    1278.9439    0.9769356 
   98200    274.56141   -812.52459    127552.45   -39046.622    3411.1554   -42457.777    1280.5045   0.97774685 
   98300    274.96691   -1091.0316    127835.19   -39026.592    3416.1933   -42442.785    1285.2634   0.97558426 
   98400    277.27407   -924.59389     127705.6   -39067.404    3444.8576   -42512.262    1285.5235   0.97657427 
   98500    271.11877     -1208.41    127699.05   -39059.942    3368.3841   -42428.326    1286.9823   0.97662434 
   98600    273.28355   -1151.9438    127547.81   -39060.068    3395.2793   -42455.347    1287.3587   0.97778236 
   98700    267.95277   -998.15393    127817.73   -39099.227    3329.0496   -42428.277    1289.9735   0.97571755 
   98800     272.5188   -1069.2476    127498.58   -39159.897     3385.778   -42545.675      1289.04   0.97815995 
   98900    267.50073    -981.5892    127422.07   -39128.944    3323.4335   -42452.377    1290.5786   0.97874731 
   99000    269.07671    -883.5504    127388.35   -39150.283    3343.0134   -42493.297    1292.5729   0.97900637 
   99100    273.62166   -984.68224    127481.92   -39142.138    3399.4799   -42541.618    1294.9216    0.9782878 
   99200    274.10236   -879.67112    127531.44    -39063.12    3405.4522   -42468.572    1296.8456   0.97790788 
   99300    271.93024   -1011.4564    127569.08   -39014.791    3378.4657   -42393.257    1298.1323   0.97761936 
   99400    270.16041   -1118.4162     127616.1   -39006.522    3356.4773       -42363    1299.5688   0.97725916 
   99500    277.26573   -1030.4543    127629.45   -38924.659    3444.7539   -42369.413    1301.4631   0.97715695 
   99600    289.56933   -1081.2218    127714.83   -38842.985    3597.6141     -42440.6    1301.4161   0.97650372 
   99700    275.12717   -869.89435    127812.63   -38846.042    3418.1844   -42264.227    1305.0485   0.97575647 
   99800    277.64765   -1094.0926    127643.42   -38838.814    3449.4989   -42288.313    1306.0899   0.97705003 
   99900    274.99231   -1048.9457    127478.92   -38867.011     3416.509    -42283.52    1305.8934   0.97831083 
  100000    278.24461   -1122.7146    127573.59   -38919.974    3456.9155   -42376.889    1307.2482   0.97758478 
  100100    279.52897   -1144.8618    127443.68   -38945.541    3472.8725   -42418.414    1308.9826   0.97858129 
  100200    282.74992   -920.15935     127430.2   -38883.926    3512.8896   -42396.816    1310.2596   0.97868482 
  100300    272.54454   -968.71594    127164.47   -38894.121    3386.0979   -42280.219     1310.451   0.98072997 
  100400    277.71032   -942.70794    127194.36   -38876.837    3450.2776   -42327.115    1313.1673   0.98049949 
  100500    282.72385   -1230.2557    126972.48   -38881.056    3512.5657   -42393.622    1312.0699   0.98221286 
  100600    278.04246   -1052.4453    127198.48    -38835.58     3454.404   -42289.984    1315.7873    0.9804677 
  100700    277.28572   -1023.3638    127217.97   -38912.837    3445.0023   -42357.839    1317.4997    0.9803175 
  100710    281.25375    -818.0397    127262.83   -38880.473    3494.3012   -42374.774    1317.9213   0.97997195 
Loop time of 177.109 on 6 procs for 100000 steps with 4169 atoms

Performance: 243.918 ns/day, 0.098 hours/ns, 564.624 timesteps/s
99.2% CPU use with 6 MPI tasks x no OpenMP threads

MPI task timing breakdown:
Section |  min time  |  avg time  |  max time  |%varavg| %total
---------------------------------------------------------------
Pair    | 143.73     | 145.97     | 147.79     |  10.9 | 82.42
Neigh   | 7.2737     | 7.3318     | 7.3658     |   1.2 |  4.14
Comm    | 18.882     | 20.766     | 23.04      |  29.7 | 11.73
Output  | 0.17851    | 0.18002    | 0.18661    |   0.7 |  0.10
Modify  | 2.0437     | 2.094      | 2.13       |   2.3 |  1.18
Other   |            | 0.7645     |            |       |  0.43

Nlocal:        694.833 ave         705 max         686 min
Histogram: 1 0 2 0 1 0 0 0 1 1
Nghost:        1599.33 ave        1620 max        1580 min
Histogram: 1 0 0 1 2 0 0 1 0 1
Neighs:        0.00000 ave           0 max           0 min
Histogram: 6 0 0 0 0 0 0 0 0 0
FullNghs:      22851.3 ave       23425 max       22457 min
Histogram: 1 2 0 0 1 0 1 0 0 1

Total # of neighbors = 137108
Ave neighs/atom = 32.887503
Neighbor list builds = 7052
Dangerous builds = 0

undump              1
unfix               2
unfix               3
unfix               4


################################################
#######         Run Simulation         #########
################################################

reset_timestep      0
log                 log.run_${NAME}
log                 log.run_liquid_275K_1000atm_mW
