LAMMPS data file via write_data, version 12 Dec 2018, timestep = 100000

800 atoms
1 atom types

-9.9254971955060611e-02 2.4917254971955060e+01 xlo xhi
-1.2406871494366278e-01 3.1146568714943733e+01 ylo yhi
-1.2406871494366278e-01 3.1146568714943733e+01 zlo zhi

Masses

1 18.015

Atoms # atomic

3 1 1.7141268725753973e+00 1.4076334207943049e+00 4.8766306026651325e+00 0 0 0
28 1 9.2485719850846717e+00 3.3536576489109224e+00 -6.9457527730930335e-03 0 0 0
8 1 2.6315474139600803e+00 3.0347666549698986e+00 2.6174221174006090e-01 0 0 0
77 1 2.1914973841132920e+01 1.2737619988321846e+01 2.8009476860605136e+00 0 0 0
5 1 4.4405839243591023e+00 1.4447945052840521e+00 1.5556406974283410e+00 0 0 0
22 1 6.6647007911831473e+00 2.9286934353489715e+00 2.9607039270087037e+00 0 0 0
79 1 2.3373428963734312e+01 1.4590401923996149e+01 1.3868552935040275e+00 0 0 0
23 1 7.6835716007328445e+00 1.2241807071375614e+00 4.7230580410071203e+00 0 0 0
21 1 9.4289749042061768e+00 -8.3465808317326529e-02 3.2146018521615938e+00 0 0 0
68 1 2.1935972910018869e+01 2.9861039267069738e+00 6.3451197146895955e-03 0 0 0
25 1 1.0964069935459532e+01 1.6782286820464771e+00 1.6333732376058434e+00 0 0 0
42 1 1.2700286448808917e+01 3.0342308234533570e+00 2.9797287175149170e+00 0 0 0
43 1 1.4375330675318452e+01 1.4486688067526381e+00 4.8305860415657360e+00 0 0 0
78 1 2.0487164222439318e+01 1.4217404439253272e+01 5.0512933232997339e+00 0 0 0
45 1 1.7189397900262826e+01 1.6814474935416202e+00 1.4488314259285899e+00 0 0 0
38 1 7.8230345501756693e+00 1.3723424192917964e+01 4.4516582497821755e+00 0 0 0
62 1 1.8404211769509459e+01 3.1602456474979874e+00 3.2855197966824510e+00 0 0 0
63 1 2.0136803199798543e+01 1.3447935940638467e+00 4.7180619857251864e+00 0 0 0
2 1 2.4861271547694841e+01 2.9857897102218844e+00 3.0573201484888695e+00 -1 0 0
65 1 2.3313622804984966e+01 1.3546190742773125e+00 1.6041719298284858e+00 0 0 0
67 1 1.8841672106714945e+01 1.5590996559971115e-01 9.9170255708510929e-02 0 0 0
37 1 9.0314929278776042e+00 1.2470786782222888e+01 2.3471023714132349e+00 0 0 0
57 1 1.5600695257825983e+01 1.2350410733637288e+01 3.4434811412075237e+00 0 0 0
6 1 1.4495016245667949e+00 4.6858942056065818e+00 1.9336104976372326e+00 0 0 0
9 1 3.2814533227090212e+00 6.2211220374759755e+00 3.2740650193491612e+00 0 0 0
11 1 1.4676802307060752e+00 7.9575753627350387e+00 4.4555952325080588e+00 0 0 0
19 1 4.5361213243976861e+00 1.3998638250123555e+01 1.4567664716951312e+00 0 0 0
4 1 4.9147638446207642e+00 4.3724366002119375e+00 4.4420307829391534e+00 0 0 0
18 1 1.2088118256456701e+00 1.3595940771628625e+01 4.2013261170155767e+00 0 0 0
35 1 6.3820794961389966e+00 5.9754617835499015e+00 -1.0546219558200681e-01 0 0 0
26 1 8.0826114815204964e+00 4.9825825367973744e+00 2.0275882364701157e+00 0 0 0
29 1 9.3949717357610432e+00 6.9632511474654493e+00 3.5638141344595149e+00 0 0 0
24 1 1.0981807330683079e+01 4.7445381954279817e+00 4.3032692404845720e+00 0 0 0
46 1 1.3951011345764561e+01 4.8500488103240116e+00 1.2987437088370859e+00 0 0 0
49 1 1.5775393349481277e+01 6.3459553105914548e+00 3.0780432219522176e+00 0 0 0
44 1 1.7052471575278147e+01 4.8805149884718961e+00 4.7832247456878063e+00 0 0 0
53 1 1.6943473264104000e+01 7.9757432844887877e+00 1.3616168623930978e+00 0 0 0
66 1 2.0124640905601261e+01 4.5024097421806486e+00 1.5396204373186748e+00 0 0 0
461 1 1.9116512984503643e+01 1.5300685752136449e+01 2.7939904048552133e+00 0 0 0
39 1 1.1061394060433367e+01 1.4216089105817465e+01 1.2849167413059799e+00 0 0 0
64 1 2.3255884109654424e+01 4.6840450602897761e+00 4.3773285383702669e+00 0 0 0
69 1 2.1545191444863740e+01 6.1953799443217683e+00 2.9231511859615580e+00 0 0 0
404 1 2.9017346345889150e+00 1.5435655924385243e+01 2.3338417607935691e-01 0 0 0
14 1 1.1520310299601249e+00 1.0803605570932643e+01 1.4708416591773334e+00 0 0 0
10 1 2.4892324669453117e+01 9.3634874309331977e+00 2.7419804998062842e+00 -1 0 0
58 1 1.3580263844300763e+01 1.3939080273797584e+01 4.9426238976598285e+00 0 0 0
13 1 4.5392978391751324e+00 7.6457725367016902e+00 1.3124116374290722e+00 0 0 0
12 1 4.6962328366429977e+00 1.0513699180366453e+01 4.4596689503787728e+00 0 0 0
30 1 6.3649445798869309e+00 9.2554981307095865e+00 2.7912236871725900e+00 0 0 0
31 1 7.7737340428735440e+00 8.2216812257148568e+00 4.7728330768125202e+00 0 0 0
34 1 7.6113306465450021e+00 1.0844785491385734e+01 1.2314241199245040e+00 0 0 0
59 1 1.7242940920747117e+01 1.3813476082923637e+01 1.6921721917791022e+00 0 0 0
33 1 1.0895302559750725e+01 7.9117146673542731e+00 1.6522833893968274e+00 0 0 0
51 1 1.3962098631296897e+01 7.9868412674920730e+00 4.7752345236220082e+00 0 0 0
32 1 1.0528386883629715e+01 1.1272783522661756e+01 4.4495190070704052e+00 0 0 0
50 1 1.2197921698163533e+01 9.4446079555079763e+00 3.2563905884457562e+00 0 0 0
54 1 1.4155880277098175e+01 1.0978657694358199e+01 1.4603337665346867e+00 0 0 0
52 1 1.7235431668335323e+01 1.0859786837920877e+01 4.9557458701548684e+00 0 0 0
71 1 2.0156857526574711e+01 7.7003053655782496e+00 4.3514923744043399e+00 0 0 0
70 1 1.8731191525568910e+01 9.3834966936575608e+00 3.0717668266580973e+00 0 0 0
74 1 2.0295056277049760e+01 1.0955165182592076e+01 1.3450028908072491e+00 0 0 0
73 1 2.3065982531907089e+01 7.5114299609913644e+00 1.4079369001086699e+00 0 0 0
72 1 2.3186578328104055e+01 1.1088716154072152e+01 4.4531673810374155e+00 0 0 0
17 1 3.1705684509998999e+00 1.2136021788660280e+01 2.9259772977731173e+00 0 0 0
484 1 2.5845539407199141e+00 1.5444029083624358e+01 5.7877063752229843e+00 0 0 0
115 1 6.5519551983849835e+00 6.2940738385406103e+00 6.1230472820700514e+00 0 0 0
120 1 5.6410219408765592e+00 1.2481692214849879e+01 5.8963958840127608e+00 0 0 0
47 1 1.2195724440777962e+01 -2.5906626943736910e-02 -5.4387002134668364e-02 0 0 0
48 1 1.5702807481377159e+01 2.9737104658052385e+00 -8.5048077894641735e-02 0 0 0
156 1 2.1730682536450537e+01 9.3991757283847672e+00 5.9017217242293185e+00 0 0 0
108 1 9.0195378953184964e+00 2.9040008454527801e+00 6.0107492804561069e+00 0 0 0
148 1 2.1970219433376791e+01 2.7015410909447048e+00 5.9018436316017944e+00 0 0 0
41 1 1.5497915861775232e+01 -8.5892851330200415e-03 2.5709317828500056e+00 0 0 0
95 1 -3.6776607090942548e-03 6.2846865903387394e+00 5.7335005446615561e+00 0 0 0
15 1 1.4313577289563872e-01 6.4211517111694913e+00 5.1279745197355531e-01 0 0 0
75 1 1.8515523516841412e+01 6.2376147236402257e+00 5.4982871447939868e-02 0 0 0
27 1 6.3438250501456697e+00 1.1177531350969924e-01 -1.0860652792283872e-01 0 0 0
140 1 1.2114468316091191e+01 1.2229625008256551e+01 6.1088339896828723e+00 0 0 0
524 1 1.5568924693136973e+01 1.5415978729472295e+01 5.9773474173256558e+00 0 0 0
88 1 3.2090300218032484e+00 3.1410906369468825e+00 6.0311217864453512e+00 0 0 0
16 1 2.8878627813222359e+00 9.1946731724426503e+00 7.8244394855339294e-02 0 0 0
80 1 1.8474373964455665e+01 1.2230579075096903e+01 -8.4627697666093127e-02 0 0 0
83 1 1.2042907376565977e+00 1.7017309272350898e+00 1.1088904161582587e+01 0 0 0
501 1 6.0860296346289156e+00 1.5316111628263554e+01 9.1052531057521247e+00 0 0 0
85 1 4.5141425825194474e+00 1.2491480676895435e+00 8.0115840958906599e+00 0 0 0
102 1 6.2879080351001919e+00 2.8529112129734431e+00 9.4699354726252167e+00 0 0 0
101 1 9.0406468858140556e+00 -6.6652454849815967e-02 9.0529429023308179e+00 0 0 0
103 1 8.0526144086964049e+00 1.5403786728667410e+00 1.0783924795776063e+01 0 0 0
128 1 1.5813913685443246e+01 3.2747645162798222e+00 6.2613061863273414e+00 0 0 0
105 1 1.0837124656178778e+01 1.4055103456535354e+00 7.4763918828824520e+00 0 0 0
155 1 1.8510144073764558e+01 6.0487886194618179e+00 6.4824657970596071e+00 0 0 0
208 1 1.5354687514257348e+01 3.4399101670280468e+00 1.2214783255362208e+01 0 0 0
122 1 1.2379573214150501e+01 2.9813036858740323e+00 9.0609384599085114e+00 0 0 0
123 1 1.3759950226202909e+01 1.6508850970102809e+00 1.0731432767095935e+01 0 0 0
125 1 1.7243541421590926e+01 1.5252397123028347e+00 8.0813034882787811e+00 0 0 0
136 1 1.5736155893302728e+01 9.2061416086889114e+00 6.3527831165577027e+00 0 0 0
142 1 1.9133787124591080e+01 3.0746651781282246e+00 9.4276988931095218e+00 0 0 0
143 1 2.0719763812581533e+01 1.2766109968619470e+00 1.1211023202694934e+01 0 0 0
137 1 1.5700832663080451e+01 1.2299389805266062e+01 8.8596573774722902e+00 0 0 0
82 1 2.4682466120138756e+01 2.9728621304913259e+00 9.1150681727397398e+00 -1 0 0
145 1 2.3319635087954588e+01 1.3853004062519783e+00 7.5798655693829948e+00 0 0 0
215 1 1.2247687211270476e+01 6.4352764100805722e+00 1.2144047895539257e+01 0 0 0
157 1 2.2266189777641841e+01 1.2161232130740524e+01 9.2717514445892508e+00 0 0 0
86 1 1.0195817057904528e+00 4.4411070726358535e+00 7.1587029598836374e+00 0 0 0
89 1 2.6889379538545515e+00 5.7035666003207925e+00 8.9679789513995534e+00 0 0 0
91 1 1.5340867389872548e+00 7.4890035477029224e+00 1.0742176353022613e+01 0 0 0
84 1 4.4792220057489631e+00 4.6345005841321356e+00 1.0864788095129711e+01 0 0 0
93 1 4.2774666715855885e+00 7.3484853558330121e+00 7.4973206911969692e+00 0 0 0
106 1 7.9073556721771023e+00 4.4310346858129366e+00 7.6555403231553143e+00 0 0 0
109 1 9.4257928912339910e+00 6.0659785033437243e+00 9.1398507242791869e+00 0 0 0
200 1 6.1921909248115323e+00 1.2350565963584165e+01 1.2219598395459661e+01 0 0 0
104 1 1.0801723468436862e+01 4.6969241561236013e+00 1.0685317592958620e+01 0 0 0
126 1 1.3828825140644783e+01 4.5896164574676241e+00 7.7384245362685293e+00 0 0 0
131 1 1.3902220106549811e+01 8.2917751112104430e+00 1.0861390802095555e+01 0 0 0
124 1 1.7255245471988651e+01 4.8903008588219015e+00 1.0518252955091183e+01 0 0 0
129 1 1.5548771881313073e+01 6.3921113866469970e+00 9.1652841106741985e+00 0 0 0
133 1 1.7259528035753540e+01 7.8241396857799881e+00 7.8558496122624408e+00 0 0 0
146 1 2.0349835515762969e+01 4.5095609579463671e+00 7.6058173585254520e+00 0 0 0
144 1 2.3241332066614689e+01 4.4642170695898811e+00 1.1218153447266667e+01 0 0 0
149 1 2.1607925615936594e+01 6.0911870341275023e+00 9.3475937759625882e+00 0 0 0
153 1 2.3287038701499306e+01 7.5804869706845395e+00 7.5628093651106241e+00 0 0 0
94 1 1.2728178786449791e+00 1.0810140211429001e+01 7.6224423980711906e+00 0 0 0
159 1 2.3664975615170142e+01 1.4183731102132905e+01 7.7299345938999968e+00 0 0 0
92 1 4.7815729639715254e+00 1.0836997882370520e+01 1.0336582068604324e+01 0 0 0
110 1 5.9478230891856674e+00 8.7118354753252323e+00 8.9678561845642939e+00 0 0 0
100 1 2.4433962694717472e+01 1.2453377647785965e+01 6.2334665510289815e+00 -1 0 0
111 1 7.7086764677345885e+00 7.1556250782486268e+00 1.0925469475848226e+01 0 0 0
113 1 1.0861942783513802e+01 7.9281274134569237e+00 7.6445240091690598e+00 0 0 0
114 1 6.9049666271682373e+00 1.0997560366137725e+01 7.6174759918897568e+00 0 0 0
138 1 1.4185512523340453e+01 1.3778112832592280e+01 1.0526068653244229e+01 0 0 0
112 1 1.0299415867363212e+01 1.0848463701169218e+01 1.0728203942133979e+01 0 0 0
130 1 1.2198873910003176e+01 9.2164626590856464e+00 9.5408102502291285e+00 0 0 0
134 1 1.3946210179412025e+01 1.0463715804646805e+01 7.5822786776127664e+00 0 0 0
158 1 2.0483621428130924e+01 1.3775927709243984e+01 1.1100145656617878e+01 0 0 0
132 1 1.6626200354403920e+01 1.1117420738370754e+01 1.1008100229572971e+01 0 0 0
220 1 1.2391238463877089e+01 1.2250690964140533e+01 1.2019508705749194e+01 0 0 0
151 1 2.0181752309768321e+01 7.5441369550056034e+00 1.1112054197082928e+01 0 0 0
150 1 1.8620247528450086e+01 9.3826241305407958e+00 9.7301413953790998e+00 0 0 0
154 1 2.0418387789206925e+01 1.0714357039680344e+01 8.2587488040007884e+00 0 0 0
90 1 6.9342605389735745e-02 9.1408778076253068e+00 9.2509021701825631e+00 0 0 0
152 1 2.3574450590127157e+01 1.0609230958022433e+01 1.0757578209782652e+01 0 0 0
117 1 8.9963128866476971e+00 1.2331392329610772e+01 8.7807957056562618e+00 0 0 0
97 1 2.8985065363052325e+00 1.2282204290615381e+01 8.9406176061694485e+00 0 0 0
98 1 1.4376650907274864e+00 1.4041678448178954e+01 1.0782293765273700e+01 0 0 0
118 1 7.6537512120888946e+00 1.3630653492980230e+01 1.0777165688248850e+01 0 0 0
139 1 1.7310907432716725e+01 1.4175604763474025e+01 7.6962832062471636e+00 0 0 0
119 1 1.0674945967281900e+01 1.4331430649210429e+01 7.3663306259464605e+00 0 0 0
99 1 4.4309173422776498e+00 1.4219715922056833e+01 7.5324555441046259e+00 0 0 0
160 1 1.8919631520790077e+01 1.2430028572693605e+01 6.2398159141985587e+00 0 0 0
176 1 3.5174713653450489e+00 9.1875994487237680e+00 1.2291104177483794e+01 0 0 0
240 1 1.8967442466838349e+01 1.2103022316284386e+01 1.2366568836599157e+01 0 0 0
196 1 8.8105294818071425e+00 9.1106520082983309e+00 1.2275671134012097e+01 0 0 0
116 1 9.1957014039201113e+00 9.7109798067505650e+00 6.3706186863656464e+00 0 0 0
180 1 8.4791036313452223e-02 1.2211427361659910e+01 1.2242425120909569e+01 0 0 0
188 1 9.3286789344394041e+00 3.1329100087697825e+00 1.2338405254610677e+01 0 0 0
187 1 6.1037164642234680e+00 3.7223187790899059e-02 1.2261038390036052e+01 0 0 0
236 1 2.1759911125836695e+01 9.0777333181926778e+00 1.2223152705739533e+01 0 0 0
96 1 2.8883597752382619e+00 9.3290473012781163e+00 6.1486019196685540e+00 0 0 0
135 1 1.2465594075086525e+01 6.3439376347878440e+00 6.1901247937450554e+00 0 0 0
163 1 1.5104559538478732e+00 1.1212446414160979e+00 1.7499132685660626e+01 0 0 0
216 1 1.5242452588718777e+01 9.2283065418918007e+00 1.2860212020762262e+01 0 0 0
238 1 2.0429890257840889e+01 1.3746508414159408e+01 1.7254328128477276e+01 0 0 0
165 1 4.3757691043749807e+00 1.4620898191572460e+00 1.3869708506709911e+01 0 0 0
182 1 6.3032119450686928e+00 2.7028428683700474e+00 1.5446289178923157e+01 0 0 0
581 1 5.7728109669262464e+00 1.5255339038656397e+01 1.5346561142412293e+01 0 0 0
227 1 1.8568235509107197e+01 1.2553414184044073e-01 1.2508542143421284e+01 0 0 0
183 1 7.8064913226013992e+00 1.2120997227750798e+00 1.6855555415096788e+01 0 0 0
624 1 2.1756096377267440e+01 1.5352107938265561e+01 1.2589361808761701e+01 0 0 0
185 1 1.1157116363421475e+01 1.7100099433613323e+00 1.3566475016076309e+01 0 0 0
202 1 1.2268474842618582e+01 3.0476290850731380e+00 1.5612692754543120e+01 0 0 0
203 1 1.3807212349116813e+01 1.4832112756348035e+00 1.7353774664731553e+01 0 0 0
561 1 5.8035257857721539e-02 1.5050084902533296e+01 1.4853335866748287e+01 0 0 0
205 1 1.6776806283171865e+01 1.5763428260448389e+00 1.3856992022052184e+01 0 0 0
175 1 1.7293730745100655e-02 6.0039190374411104e+00 1.2551892978957568e+01 0 0 0
295 1 1.2066826136659023e+01 6.1557131863108747e+00 1.8285661474185098e+01 0 0 0
222 1 1.8494678383556668e+01 2.7643057318060960e+00 1.5650189321030320e+01 0 0 0
223 1 2.0566399992074651e+01 1.2427900082357786e+00 1.7119870735914084e+01 0 0 0
601 1 1.2623407381317865e+01 1.5288716320184571e+01 1.5240453133301584e+01 0 0 0
235 1 1.8490135706398313e+01 6.2384526574178789e+00 1.2640204818310357e+01 0 0 0
162 1 3.0414200081332265e-01 2.8599191487804401e+00 1.6017996546796610e+01 0 0 0
225 1 2.3938244548713087e+01 1.6001666124065086e+00 1.4097935799861862e+01 0 0 0
219 1 1.7460147850700338e+01 1.3968601665742725e+01 1.3730979543388221e+01 0 0 0
181 1 9.5150918227945418e+00 -1.1679419149774617e-01 1.5502714094222668e+01 0 0 0
166 1 1.6418737993216563e+00 4.2077930253618012e+00 1.4312550020956683e+01 0 0 0
169 1 3.3187831929025395e+00 6.0229600100383021e+00 1.5656783336844091e+01 0 0 0
164 1 4.5161561170478270e+00 4.4131731528119076e+00 1.7115106915436499e+01 0 0 0
217 1 1.5611070707119161e+01 1.2377520528254433e+01 1.4886712836058235e+01 0 0 0
179 1 4.5547543509101827e+00 1.4065616279069916e+01 1.3607161474118065e+01 0 0 0
186 1 7.4898390972598206e+00 4.4996297708203468e+00 1.3882000755821899e+01 0 0 0
189 1 8.9353752121124845e+00 6.0593545166275717e+00 1.5519610570876765e+01 0 0 0
199 1 1.1343423962671769e+01 1.3932346274202612e+01 1.3758659931788957e+01 0 0 0
184 1 1.0460202004251194e+01 4.5249350001121158e+00 1.6874812060622382e+01 0 0 0
206 1 1.3725039550249990e+01 4.8989878951296086e+00 1.3769137056713266e+01 0 0 0
211 1 1.3819220067844759e+01 7.8827216891673260e+00 1.7414859641485343e+01 0 0 0
204 1 1.7025427923556421e+01 4.4510699616562102e+00 1.7087487924264870e+01 0 0 0
209 1 1.5373526409303542e+01 6.2908208196082622e+00 1.5835633387013866e+01 0 0 0
226 1 2.0276821957046479e+01 4.6003187699716390e+00 1.3943154014484493e+01 0 0 0
239 1 2.3396905374063309e+01 1.3573915525022844e+01 1.3536911211973210e+01 0 0 0
229 1 2.1901905072296728e+01 5.8442079354987158e+00 1.5607652994197485e+01 0 0 0
224 1 2.3785708982138573e+01 4.6228620084855887e+00 1.7160851838574715e+01 0 0 0
233 1 2.3405680257375458e+01 7.4503561421785234e+00 1.4074831426994583e+01 0 0 0
198 1 7.6627309045706919e+00 1.3689799419615678e+01 1.6848613544542189e+01 0 0 0
171 1 1.6322441218496970e+00 7.4487330213933269e+00 1.7288806718778744e+01 0 0 0
174 1 1.3953610561663048e+00 1.0707699235099595e+01 1.3684408868529610e+01 0 0 0
173 1 4.6651311856947775e+00 7.7367918170778278e+00 1.3975918229306115e+01 0 0 0
172 1 4.1800898138952203e+00 1.0879496956569852e+01 1.7248572917810002e+01 0 0 0
190 1 6.0231982053766311e+00 9.6891519379622775e+00 1.5557860132708059e+01 0 0 0
191 1 7.5584434991975646e+00 7.8324531961836774e+00 1.7223724700293069e+01 0 0 0
194 1 7.7306810646298896e+00 1.1100172888088643e+01 1.3931297814912641e+01 0 0 0
197 1 9.3175671225534202e+00 1.2436868792340499e+01 1.5356926635853323e+01 0 0 0
193 1 1.0671589662501658e+01 7.7305603350379215e+00 1.3981044992777655e+01 0 0 0
192 1 1.0572582496655617e+01 1.0976778609890372e+01 1.7159328793477265e+01 0 0 0
210 1 1.2120549196364813e+01 9.2336813647913072e+00 1.6008301689218150e+01 0 0 0
214 1 1.3360287347065993e+01 1.0586910132920309e+01 1.3889071903434312e+01 0 0 0
213 1 1.6898030338224125e+01 7.5727564997282411e+00 1.3978605677842308e+01 0 0 0
212 1 1.7007429679391372e+01 1.0966957972515601e+01 1.6807326271280907e+01 0 0 0
231 1 2.0338018217049957e+01 7.8378492810717315e+00 1.6901758930443663e+01 0 0 0
230 1 1.8687443263998254e+01 9.2300801475740233e+00 1.5419675134603063e+01 0 0 0
234 1 2.0278113255771217e+01 1.0618560937164762e+01 1.3974543587639255e+01 0 0 0
170 1 -5.0907999166854359e-02 9.2348362529542811e+00 1.5569517124010700e+01 0 0 0
232 1 2.3445016885501296e+01 1.0726347268425750e+01 1.7053467793000173e+01 0 0 0
218 1 1.4263661587430853e+01 1.3600878259774206e+01 1.6921608606301767e+01 0 0 0
237 1 2.1947340188174493e+01 1.2078955585236075e+01 1.5529633027935082e+01 0 0 0
177 1 3.0157748045144195e+00 1.2205496638669135e+01 1.5246712177867131e+01 0 0 0
178 1 1.3060052686002686e+00 1.4235829212995386e+01 1.6915422613826195e+01 0 0 0
704 1 2.2028795770939460e+01 1.5439307024513360e+01 1.8486079942008146e+01 0 0 0
161 1 2.8134002477239632e+00 -5.9562701833122844e-02 1.5699385098242191e+01 0 0 0
300 1 1.2325903840219011e+01 1.2416594949329951e+01 1.8549937146114267e+01 0 0 0
268 1 9.0230521140685340e+00 2.8081936568618406e+00 1.8500170617337396e+01 0 0 0
228 1 2.2209070942413945e+01 2.8921005635083881e+00 1.2952302025908125e+01 0 0 0
296 1 1.5444399822552429e+01 9.5331177645131397e+00 1.8466079921761306e+01 0 0 0
260 1 2.4781950848946948e+01 1.2405680670713426e+01 1.8365317669777355e+01 -1 0 0
320 1 1.8554499897732057e+01 1.2515183280554748e+01 1.8586037801837676e+01 0 0 0
307 1 1.8938956106085307e+01 -1.1700573847191009e-01 1.8634560674548773e+01 0 0 0
280 1 5.7071311837507199e+00 1.2341333521137656e+01 1.8513901734055196e+01 0 0 0
287 1 1.2345273397033601e+01 6.4383046655017040e-02 1.8569899284807882e+01 0 0 0
584 1 9.2618632081772105e+00 1.5470098413350005e+01 1.2464160662895196e+01 0 0 0
168 1 3.2202673058284148e+00 3.0219764078649014e+00 1.2458784501246351e+01 0 0 0
195 1 5.7521221799130391e+00 6.0585349576121654e+00 1.2490865743098665e+01 0 0 0
243 1 1.4830684598314683e+00 9.8860812226445671e-01 2.3579405783413407e+01 0 0 0
256 1 2.9679031663971602e+00 9.0354859170651167e+00 1.8903866278207680e+01 0 0 0
368 1 1.5624332656524537e+01 3.1547409081922222e+00 2.4763910046522199e+01 0 0 0
245 1 4.5437698057599842e+00 1.3371553022055278e+00 2.0369734765420574e+01 0 0 0
262 1 6.0668823481416512e+00 2.7292854086803700e+00 2.1477313761485838e+01 0 0 0
263 1 7.6242827922704013e+00 1.0667923030349764e+00 2.2827779200570419e+01 0 0 0
288 1 1.5538343094762514e+01 3.0783220760051653e+00 1.8827528317114620e+01 0 0 0
265 1 1.0740155187722793e+01 1.4518519187681982e+00 1.9880016928005837e+01 0 0 0
282 1 1.2279001126086312e+01 2.6186939987527884e+00 2.1768644866729353e+01 0 0 0
283 1 1.3938999868310509e+01 1.5827742942039007e+00 2.3260046541244435e+01 0 0 0
285 1 1.7255718209941932e+01 1.4681418774348485e+00 2.0122411991245457e+01 0 0 0
367 1 1.2436962419493272e+01 -1.0776919344034042e-01 2.4615990523447429e+01 0 0 0
281 1 1.5553320720974407e+01 1.3492837358270354e-01 2.1685563466056486e+01 0 0 0
302 1 1.9019944423838311e+01 2.7979346404273735e+00 2.1893698302979992e+01 0 0 0
303 1 2.0787866154961094e+01 1.2795883014830252e+00 2.3572192595604569e+01 0 0 0
242 1 1.1257713089079180e-01 2.9284440977571666e+00 2.2089910306019391e+01 0 0 0
305 1 2.3535862990258195e+01 1.2867241262285061e+00 2.0299007108396694e+01 0 0 0
246 1 1.4132278049234632e+00 4.3724601315129554e+00 2.0161571485638362e+01 0 0 0
249 1 3.1149290289668552e+00 6.1203468014821167e+00 2.1534048836391179e+01 0 0 0
251 1 1.5213902720448054e+00 7.5743375442315504e+00 2.3247806207671594e+01 0 0 0
244 1 4.6962179220883051e+00 4.3338445067655185e+00 2.3233605649336646e+01 0 0 0
253 1 4.8060133046999827e+00 7.5680250515211958e+00 2.0067211190998734e+01 0 0 0
315 1 1.8656950604764880e+01 5.9196234763001945e+00 1.8737633210585379e+01 0 0 0
266 1 7.7271440738344097e+00 4.3009642436248301e+00 2.0086564913870376e+01 0 0 0
269 1 8.6914408583167297e+00 6.2551149867931128e+00 2.1707008458470519e+01 0 0 0
271 1 7.4382329665357210e+00 7.4404004004706037e+00 2.3881996430190846e+01 0 0 0
264 1 1.0114240208008889e+01 4.3560329327197236e+00 2.3218139323578569e+01 0 0 0
273 1 1.0553725950457306e+01 7.7672937005119671e+00 2.0254305262471512e+01 0 0 0
286 1 1.3554706958973018e+01 4.3952644005262558e+00 1.9850570133498486e+01 0 0 0
348 1 8.8242215023606345e+00 2.8015708597532698e+00 2.4759449636929666e+01 0 0 0
284 1 1.7422347793392149e+01 4.5870213788897756e+00 2.2961286268770500e+01 0 0 0
289 1 1.5400530627064322e+01 6.2762828587319426e+00 2.1344610056626280e+01 0 0 0
306 1 2.0396522004454560e+01 4.5118753302073937e+00 2.0223414344333101e+01 0 0 0
298 1 1.4105505764584432e+01 1.4108812501436297e+01 2.3142425136081997e+01 0 0 0
279 1 1.0884225281867437e+01 1.4291426189227122e+01 2.0304044774891906e+01 0 0 0
309 1 2.1742025373609394e+01 6.0068436658478674e+00 2.1740250074384797e+01 0 0 0
304 1 2.3643643065594738e+01 4.6599313237806728e+00 2.3478501434020536e+01 0 0 0
313 1 2.3382205198413260e+01 7.5166645395896889e+00 2.0248495073356366e+01 0 0 0
277 1 9.0003765242973817e+00 1.2531415413159781e+01 2.1515761227310882e+01 0 0 0
259 1 4.1621523362433299e+00 1.4166874263728628e+01 2.0216363635381818e+01 0 0 0
254 1 1.0356717414038077e+00 1.0896156356333615e+01 2.0050279298157463e+01 0 0 0
250 1 2.4786298884220329e+01 9.0158009698623616e+00 2.1868560697632923e+01 -1 0 0
318 1 2.0293979756719523e+01 1.4170378674910760e+01 2.3553145984134034e+01 0 0 0
252 1 4.5768346901647563e+00 1.0842733846890399e+01 2.3458152520341926e+01 0 0 0
270 1 5.8471465757199672e+00 9.1445443118971159e+00 2.1702850052291367e+01 0 0 0
299 1 1.7188128153095398e+01 1.4074039215721486e+01 2.0523498034116884e+01 0 0 0
274 1 7.1926044181418591e+00 1.0915274187293129e+01 2.0424152359221893e+01 0 0 0
272 1 1.0439959333634476e+01 1.1053327048002540e+01 2.3427381637885063e+01 0 0 0
290 1 1.2228785697001623e+01 9.7790800375455440e+00 2.1773465616787377e+01 0 0 0
294 1 1.3796389903647995e+01 1.1017054969942700e+01 2.0086713492321579e+01 0 0 0
291 1 1.3552078127500859e+01 7.6143259408185102e+00 2.3226783616758325e+01 0 0 0
297 1 1.5490833380402611e+01 1.2545230381574470e+01 2.1581546257709491e+01 0 0 0
293 1 1.6958671582772368e+01 7.7988781074739899e+00 2.0076203809474976e+01 0 0 0
292 1 1.7018233725187208e+01 1.0706622954527242e+01 2.3216747946391742e+01 0 0 0
311 1 1.9940896790797254e+01 7.3358573501970747e+00 2.3455886422967843e+01 0 0 0
314 1 2.0239550013359747e+01 1.0730508274283638e+01 2.0044288498131465e+01 0 0 0
310 1 1.8686743535162599e+01 9.2453168932035812e+00 2.1848983444791848e+01 0 0 0
248 1 2.9545059199235628e+00 3.0234759632859696e+00 1.8854900194116418e+01 0 0 0
312 1 2.3320997113902919e+01 1.0621349073170720e+01 2.3434217628302434e+01 0 0 0
681 1 1.2600141833619686e+01 1.5466676446650002e+01 2.1915122105754470e+01 0 0 0
319 1 2.3420484188894243e+01 1.3973477131725479e+01 2.0327455277258302e+01 0 0 0
257 1 2.8998712136681917e+00 1.2441327024649894e+01 2.1769145739756297e+01 0 0 0
258 1 1.6648829505026426e+00 1.4125845557186000e+01 2.3563254574179538e+01 0 0 0
317 1 2.1776146088463960e+01 1.2509544390065178e+01 2.1860472570911000e+01 0 0 0
278 1 7.8229219212297512e+00 1.4161409723763240e+01 2.3215916486707719e+01 0 0 0
375 1 1.1813220329840751e+01 5.8733950654540186e+00 2.4531985397829644e+01 0 0 0
276 1 8.8261730439986632e+00 9.4291278627725799e+00 1.8930913764189363e+01 0 0 0
255 1 1.2834392865766370e-01 6.0630646632137806e+00 1.8716468563728405e+01 0 0 0
360 1 6.0458522398934704e+00 1.2627491827323871e+01 2.4756681924564823e+01 0 0 0
684 1 1.5338361707170693e+01 1.5296873470523060e+01 1.8665038231064123e+01 0 0 0
380 1 1.2463262287903479e+01 1.2285554700796055e+01 2.4617825835484936e+01 0 0 0
340 1 2.4839564520431693e+01 1.2391609370658944e+01 2.4705669022709891e+01 -1 0 0
308 1 2.2243120729833826e+01 2.7932514034706752e+00 1.8682661170189434e+01 0 0 0
275 1 6.3243462640791233e+00 5.9085093301612979e+00 1.8716065183432278e+01 0 0 0
316 1 2.1882348637265331e+01 9.1298515893425680e+00 1.8647942632457188e+01 0 0 0
323 1 1.2261075304552320e+00 1.5571157690687794e+00 2.9831701926938720e+01 0 0 0
322 1 2.4792744437245112e+01 3.2804084574323737e+00 2.8275625879815792e+01 -1 0 0
744 1 9.5739660959514854e+00 1.5360100845320339e+01 2.4938416197151113e+01 0 0 0
325 1 4.7139756482290451e+00 1.3413531858077625e+00 2.6635963472662851e+01 0 0 0
342 1 6.3475473975933250e+00 3.1520731774358635e+00 2.7640374841501249e+01 0 0 0
343 1 7.7103584638818150e+00 1.5192317126998980e+00 2.9614175390784716e+01 0 0 0
345 1 1.0667200371896147e+01 1.5536439884614948e+00 2.6453969736181122e+01 0 0 0
396 1 2.1867909198453205e+01 9.1165200355905380e+00 2.5081560576232548e+01 0 0 0
328 1 3.1343193264450955e+00 2.7140212420339171e+00 2.5047194417547608e+01 0 0 0
362 1 1.2455096143354590e+01 3.0841549231209657e+00 2.7953256505399146e+01 0 0 0
363 1 1.4374889267323129e+01 1.3043412423080436e+00 2.9542890874646794e+01 0 0 0
764 1 1.5665105499017752e+01 1.5384420132204060e+01 2.4969813602590285e+01 0 0 0
365 1 1.7289217666923037e+01 1.3893576450037788e+00 2.6249357443808414e+01 0 0 0
397 1 2.1999165622032208e+01 1.2531691778700617e+01 2.8267670513758112e+01 0 0 0
388 1 2.1770975922816227e+01 2.9990555752932146e+00 2.4957792327332399e+01 0 0 0
382 1 1.8648480867631470e+01 2.6676027664623052e+00 2.7965347914023198e+01 0 0 0
383 1 2.0500930522987247e+01 1.6438142193676175e+00 2.9218722008451273e+01 0 0 0
395 1 1.8807387256941247e+01 5.8532413593693491e+00 2.5220778560301348e+01 0 0 0
385 1 2.3227078087831138e+01 1.5759405245590790e+00 2.6627768790712722e+01 0 0 0
741 1 6.3689751019899417e+00 1.5441604255803046e+01 2.8181874504692807e+01 0 0 0
341 1 9.4375603020213941e+00 -6.6298864851331685e-02 2.8021338477709961e+01 0 0 0
326 1 1.5918203505874737e+00 4.3466357303314496e+00 2.6466148371585199e+01 0 0 0
329 1 3.0778084852669174e+00 6.0881910864644642e+00 2.8288996657644191e+01 0 0 0
324 1 4.7242801949507216e+00 4.4153021458957289e+00 2.9637705675207258e+01 0 0 0
333 1 4.3844316929720062e+00 7.3938382577634094e+00 2.6389384057056304e+01 0 0 0
346 1 7.9139537280650956e+00 4.6929610850937680e+00 2.6461674132587355e+01 0 0 0
349 1 9.2175439517738997e+00 6.2058774644258285e+00 2.8189550385982059e+01 0 0 0
351 1 7.4987696131904054e+00 7.8703006830220144e+00 2.9644475480856187e+01 0 0 0
344 1 1.0691222561251770e+01 4.6442413658538095e+00 2.9438170491877891e+01 0 0 0
366 1 1.3893628988588608e+01 4.5158902193453105e+00 2.6308922872088928e+01 0 0 0
56 1 1.5333715633495880e+01 9.4323654165590369e+00 3.0816420997372475e+01 0 0 -1
359 1 1.0932466309300411e+01 1.3916781451400050e+01 2.6590781690159083e+01 0 0 0
364 1 1.7139269983272257e+01 4.3501955580377816e+00 2.9540878765535489e+01 0 0 0
369 1 1.5207845827221830e+01 5.9650369608180505e+00 2.8165145652827711e+01 0 0 0
373 1 1.6927333098321981e+01 7.4319283606835276e+00 2.6624758407752260e+01 0 0 0
386 1 2.0328237883586816e+01 4.4904610625292607e+00 2.6852521223818087e+01 0 0 0
391 1 1.9834507773107596e+01 7.6566232130829723e+00 2.9535308623476105e+01 0 0 0
389 1 2.1815017340389744e+01 6.3698597500351379e+00 2.8137325862509535e+01 0 0 0
384 1 2.3281778589078385e+01 4.8847648522908456e+00 2.9966566537270232e+01 0 0 0
393 1 2.3198858239810441e+01 7.4927206152049690e+00 2.6409208774029054e+01 0 0 0
357 1 9.1029553429517449e+00 1.2416464469071911e+01 2.8000642618534449e+01 0 0 0
331 1 1.0438225080814425e+00 7.8312899454721228e+00 2.9967586443254227e+01 0 0 0
334 1 1.2932224064513929e+00 1.0833612492202779e+01 2.6375199829427274e+01 0 0 0
330 1 -2.9541596491000632e-02 9.1190234836228541e+00 2.7912312247421340e+01 0 0 0
399 1 2.3727173607494592e+01 1.3922853641728050e+01 2.6493348645685280e+01 0 0 0
332 1 3.9842004303787562e+00 1.0901533330678744e+01 2.9526912453488791e+01 0 0 0
350 1 5.5495780713746869e+00 9.2132870809014680e+00 2.7837406142426616e+01 0 0 0
353 1 1.0832546708950103e+01 7.8936603125771807e+00 2.6452008950069029e+01 0 0 0
354 1 7.1940967751712508e+00 1.0970321233027899e+01 2.6481898330273090e+01 0 0 0
352 1 1.0705394253002281e+01 1.0937198179813258e+01 2.9741132296216712e+01 0 0 0
370 1 1.2112682026392092e+01 9.3364787210310176e+00 2.8204565104594998e+01 0 0 0
374 1 1.3952399511631240e+01 1.0505294017455505e+01 2.6467005399829588e+01 0 0 0
371 1 1.3918798516574373e+01 7.6272999645287820e+00 2.9583034122539424e+01 0 0 0