LAMMPS data file via write_data, version 12 Dec 2018, timestep = 50000

1533 atoms
1 atom types

-1.2850326663208733e-02 4.9663705305761674e+01 xlo xhi
-8.0932726357954010e-03 3.1278730702523099e+01 ylo yhi
-8.0932726357954010e-03 3.1278730702523099e+01 zlo zhi

Masses

1 18.015

Atoms # atomic

117 1 1.5349152648239126e+00 6.5891630574078341e-01 2.4603086496057380e+00 0 1 0
118 1 3.0115405617838538e+00 2.3566043905635343e+00 3.7394923239469047e+00 0 1 0
114 1 6.0738053555746117e+00 2.0358643517906279e+00 7.4119724257047592e-01 0 1 0
131 1 4.5757068892705686e+00 3.7422548291320217e+00 2.4253588985703036e+00 0 1 0
123 1 9.1124488646170931e+00 1.9759158684931997e+00 4.1642158539151408e+00 0 1 0
150 1 3.0488260854130758e+00 5.4852243883602485e+00 1.0821552661407325e+00 0 1 0
129 1 1.4067748578797876e+00 7.1028672919005533e+00 2.4127328944112447e+00 0 1 0
257 1 9.1416053848847820e+00 3.0374661031835018e+01 1.3132017135358581e+01 0 0 0
132 1 5.8649797872325600e+00 5.4109534025200521e+00 3.6880971074098685e+00 0 1 0
121 1 9.3032628075432129e+00 5.2545180900270605e+00 1.0937181290200202e+00 0 1 0
135 1 8.1279925232181416e+00 7.0391261513633347e+00 2.6975065223084869e+00 0 1 0
139 1 3.3061090313109656e+00 8.1340993104713384e+00 4.1202875891853976e+00 0 1 0
152 1 6.5408194406275548e+00 8.3230912050454045e+00 8.1793601627159285e-01 0 1 0
140 1 4.8169078346230778e+00 9.7154496895740348e+00 2.6995569513322204e+00 0 1 0
141 1 9.8119184936061110e+00 8.7213558319284541e+00 3.8536087259608389e+00 0 1 0
124 1 3.2653607780267273e+00 1.1080838687240133e+01 1.1373050794436759e+00 0 1 0
144 1 1.4149657973043872e+00 1.2661068903377828e+01 2.2532513921044410e+00 0 1 0
145 1 2.8319868638298433e+00 1.4398537329248345e+01 4.1588124183053710e+00 0 0 0
126 1 6.2352863187332321e+00 1.4453296978428495e+01 1.2244663224594994e+00 0 0 0
130 1 6.3709016616626792e+00 1.1573659448377406e+01 4.1542937901136261e+00 0 1 0
112 1 9.1602476660122818e+00 1.1428078092638666e+01 6.1309839940031241e-01 0 1 0
136 1 7.7013344729131479e+00 1.2843814326264930e+01 2.4018478787920299e+00 0 1 0
34 1 3.3380468355814785e+00 1.7795939637170612e+01 7.1771033424181563e-01 0 0 0
200 1 4.2916625124459387e+00 2.8827430513964131e+01 1.4910294855993879e+01 0 0 0
38 1 4.6438349585912952e+00 1.5903017746205666e+01 2.6991977856565725e+00 0 0 0
39 1 6.4185185611416662e+00 1.7507611043571309e+01 4.1583040453265196e+00 0 0 0
30 1 9.1515623883916692e+00 1.7558727121454808e+01 6.9732728288104540e-01 0 0 0
40 1 9.1726823054840061e+00 1.4586536128988337e+01 3.7410956281650938e+00 0 0 0
42 1 1.1474652006728590e+00 1.9096628997258463e+01 1.8458751748270192e+00 0 0 0
43 1 2.8176855536194889e+00 2.0359742008848905e+01 3.6560876975472834e+00 0 0 0
31 1 1.2367616687452740e-01 2.0941162802618123e+01 4.1993503548705785e-01 0 0 0
28 1 6.6827024025280766e+00 2.0950554909918765e+01 8.0968341304125435e-01 0 0 0
47 1 8.0388044690259850e+00 1.9086551396690133e+01 2.3429697148346724e+00 0 0 0
48 1 9.5580276731092919e+00 2.0722341506278752e+01 3.8280484360015272e+00 0 0 0
67 1 3.0172106012436148e+00 2.3987099358712030e+01 8.3525127842647273e-01 0 0 0
55 1 1.9673423027900672e-01 2.3798832463334357e+01 3.9391573651993168e+00 0 0 0
46 1 4.4070365376718339e+00 2.2005512219722938e+01 2.1846681840269651e+00 0 0 0
52 1 6.0782575778697607e+00 2.3369568046877468e+01 3.6559648671642555e+00 0 0 0
63 1 9.3278170840892720e+00 2.4369229562994562e+01 1.0573829671307811e+00 0 0 0
50 1 1.4008324555619185e+00 2.5468958923444248e+01 2.3098546573507850e+00 0 0 0
57 1 3.0273626145542831e+00 2.6941784983639117e+01 3.6287121893293381e+00 0 0 0
29 1 5.7712976208159024e+00 2.7141376168331327e+01 5.8291469396240325e-01 0 0 0
54 1 7.0358965597729863e+00 2.5656476092000261e+01 2.3048856804202411e+00 0 0 0
56 1 9.1283253578156796e+00 2.6990998483721995e+01 3.4688075605880511e+00 0 0 0
27 1 2.7132475084377283e+00 3.0105246424454769e+01 4.7416892448242814e-01 0 0 0
60 1 4.5605666386673782e+00 2.8880299524593539e+01 2.2198212237040917e+00 0 0 0
37 1 6.2165356628364998e+00 2.9977262755488255e+01 3.7934329087920560e+00 0 0 0
122 1 7.7350849464807760e+00 5.8589904296846795e-01 2.3653529485643054e+00 0 1 0
113 1 9.0131082262611564e+00 3.0193803391491734e+01 7.8620174631409867e-01 0 0 0
128 1 1.6071508058481587e+00 3.7161554175277089e+00 5.4288389712773419e+00 0 1 0
147 1 1.3181412497400863e-01 2.1230045166024913e+00 7.0141696378453213e+00 0 1 0
146 1 6.4309412659421463e+00 1.9077033077170651e+00 6.5117983830480890e+00 0 1 0
161 1 2.9494462613773140e+00 4.9830249933397033e+00 7.2596357946903431e+00 0 1 0
133 1 4.6882009605835231e+00 6.5472206206455406e+00 5.6991143358999734e+00 0 1 0
134 1 7.8044851722583131e+00 4.1912380142875278e+00 5.3867037711044654e+00 0 1 0
156 1 9.8090023548332610e+00 5.6061010112607397e+00 7.2015505096851138e+00 0 1 0
138 1 1.5954188590211420e+00 9.3424674299510553e+00 5.7097149740164133e+00 0 1 0
149 1 6.3813316093120180e+00 8.2515158326213403e+00 6.9941169701687862e+00 0 1 0
142 1 8.2089897434769110e+00 1.0078454968853038e+01 5.4996201407269973e+00 0 1 0
148 1 2.7768085055034306e+00 1.1370989342177385e+01 7.0601277523718036e+00 0 1 0
167 1 3.6652582870050543e-01 1.4415782647969365e+01 7.1641212880052798e+00 0 0 0
143 1 4.3627596402242759e+00 1.3158301896570778e+01 5.8589563811423995e+00 0 1 0
151 1 9.2756883146114308e+00 1.1638329705888070e+01 6.8983156025153827e+00 0 1 0
36 1 1.3322698430334157e+00 1.6355834875134398e+01 5.7781107571747068e+00 0 0 0
83 1 3.3492899363349893e+00 1.7676763751275388e+01 7.1487001847227996e+00 0 0 0
66 1 6.2342316476223063e+00 1.4690465540529782e+01 6.9508517146657773e+00 0 0 0
41 1 8.1841383954777669e+00 1.6194399100384636e+01 5.4729735256284302e+00 0 0 0
65 1 9.4608634474496824e+00 1.7787754774474536e+01 7.0282586264655009e+00 0 0 0
72 1 1.4465841369988539e-01 2.0660249916682830e+01 7.2418568579525369e+00 0 0 0
45 1 4.6088963059661996e+00 1.9290122614575523e+01 5.5538786820582908e+00 0 0 0
84 1 5.8824553684033880e+00 2.0714894107562763e+01 7.1807980327114551e+00 0 0 0
44 1 1.6622365558795678e+00 2.2146103147689360e+01 5.4312034727285248e+00 0 0 0
61 1 3.6466478368783859e+00 2.3845578288844365e+01 6.9809330649952228e+00 0 0 0
53 1 7.8400224227419439e+00 2.1812552112334892e+01 5.6145914731348743e+00 0 0 0
62 1 8.9424457863554885e+00 2.3768591018298551e+01 6.9654920329540353e+00 0 0 0
64 1 2.1219065773708409e-01 2.6870971418591637e+01 6.9322288107973531e+00 0 0 0
51 1 4.9114037693923365e+00 2.5495830496657987e+01 5.0253992415105051e+00 0 0 0
49 1 6.3227519050339351e+00 2.7010182042497235e+01 6.9093902696041942e+00 0 0 0
59 1 7.7850687362676458e+00 2.8290932180540260e+01 5.4662109194005053e+00 0 0 0
58 1 1.5657649971126009e+00 2.8702169893603163e+01 5.4713416508597259e+00 0 0 0
119 1 4.6405232053005774e+00 5.9796726437759606e-01 4.9235720869960318e+00 0 1 0
120 1 3.4215844609024479e+00 3.0305797418669790e+01 6.6642380494012050e+00 0 0 0
82 1 9.3940131355228864e+00 3.0131329248385605e+01 7.1540791292212722e+00 0 0 0
247 1 3.0457586037537987e+00 1.9578173735395992e+00 1.0278828544269217e+01 0 1 0
249 1 1.8533237528470154e+00 3.9464165822681303e+00 1.1291731387092856e+01 0 1 0
158 1 4.7281301838476146e+00 3.3626225429978218e+00 8.4629676482810599e+00 0 1 0
155 1 9.3055899821047863e+00 1.9767274406065198e+00 9.9555339280399995e+00 0 1 0
251 1 8.0176003390840407e+00 3.8742141349655510e+00 1.1557971227717355e+01 0 1 0
157 1 1.5105567230460526e+00 7.0897787496488167e+00 8.4536964605615701e+00 0 1 0
159 1 6.1903903479580942e+00 5.3240109928391295e+00 1.0140009024112283e+01 0 1 0
250 1 4.9717617680828532e+00 6.8148681672102462e+00 1.1674854004754769e+01 0 1 0
160 1 8.0383546491714934e+00 6.6845292761370345e+00 8.4759540663977564e+00 0 1 0
254 1 3.3204550411389575e+00 8.5336989759379431e+00 1.0326222804476560e+01 0 1 0
253 1 1.6711624928198723e+00 1.0023433197961660e+01 1.1628529109507875e+01 0 1 0
162 1 4.8139906914111288e+00 9.9737730972728649e+00 8.3334987290095164e+00 0 1 0
164 1 9.5027592180333347e+00 8.4429107093197651e+00 9.9082287512837262e+00 0 1 0
255 1 7.9891114987516403e+00 9.6965598808529432e+00 1.1766947409026422e+01 0 1 0
165 1 1.5143163480801636e+00 1.3000439623678579e+01 8.7526019664652157e+00 0 1 0
166 1 6.6643830635110932e+00 1.1366800942164222e+01 9.8809135138859556e+00 0 1 0
256 1 4.9738890927226551e+00 1.2790076231351621e+01 1.1520185371108331e+01 0 1 0
163 1 7.8199852158846905e+00 1.3191438180697595e+01 8.6017983503105242e+00 0 1 0
181 1 2.9422122726084066e+00 1.4593629551856946e+01 1.0390978206055584e+01 0 0 0
170 1 4.3165516435214785e-01 1.7514622606879108e+01 1.0709754576692537e+01 0 0 0
68 1 4.5053898545143323e+00 1.6116069722203278e+01 8.5603545234047811e+00 0 0 0
69 1 6.4338303928362004e+00 1.7357465019449279e+01 1.0137751277301557e+01 0 0 0
73 1 9.6473728282625579e+00 1.4536368437593108e+01 1.0194205399695024e+01 0 0 0
169 1 7.9378879092782419e+00 1.5865950224045202e+01 1.1547746988586738e+01 0 0 0
74 1 1.7700794097722419e+00 1.8863194180192252e+01 9.0034252646460136e+00 0 0 0
171 1 3.4478568179522338e+00 2.0679300745413890e+01 1.0348354392810133e+01 0 0 0
172 1 4.6458495353808509e+00 1.9068680618065947e+01 1.1807432839948973e+01 0 0 0
76 1 7.6210717760025677e+00 1.9155181988407307e+01 8.5726531353249111e+00 0 0 0
173 1 9.0673561402576208e+00 2.0715714090804560e+01 1.0211110622431724e+01 0 0 0
175 1 1.7604447477133287e+00 2.2105811776243513e+01 1.1981222555104891e+01 0 0 0
78 1 4.7949017176363196e+00 2.2394019679112787e+01 8.6666192230858936e+00 0 0 0
177 1 6.1536717103018574e+00 2.4347390395498195e+01 1.0249379983292279e+01 0 0 0
178 1 7.6897116894726709e+00 2.2489730575189512e+01 1.1916106848369637e+01 0 0 0
77 1 1.5234390648151914e+00 2.5366464920837501e+01 8.3749589690162356e+00 0 0 0
81 1 3.1446915840566523e+00 2.6865037625695145e+01 9.9380709696794582e+00 0 0 0
176 1 4.3096092750313018e+00 2.5538351569550997e+01 1.1940967928010398e+01 0 0 0
174 1 7.7940530768860974e+00 2.8350108722740451e+01 1.1540801524728318e+01 0 0 0
79 1 7.8620384098240494e+00 2.5759141729024833e+01 8.6219757119342120e+00 0 0 0
80 1 9.4497458837830894e+00 2.7096529543981774e+01 1.0048342477711721e+01 0 0 0
153 1 1.5450353389155349e+00 5.7117603435126307e-01 8.4910957486820973e+00 0 1 0
180 1 1.4340370242264924e+00 2.8896421156216086e+01 1.1607645176231012e+01 0 0 0
71 1 1.8542102975173430e-01 2.9711098326979936e+01 9.5444910361216859e+00 0 0 0
75 1 4.6844677487546953e+00 2.8726120115376588e+01 8.2976715892205739e+00 0 0 0
70 1 5.9031548645039438e+00 2.9916458708310387e+01 1.0037971618805365e+01 0 0 0
248 1 4.6583271350259272e+00 4.4373483226930260e-01 1.1541343273294620e+01 0 1 0
154 1 7.4993221375260841e+00 1.5135782890931721e-02 8.6393939927048198e+00 0 1 0
261 1 2.8888185617248674e-01 1.9423752467820610e+00 1.3090823201422756e+01 0 1 0
264 1 1.6842232137812678e+00 5.4789617113140576e-01 1.4777629692349697e+01 0 1 0
260 1 6.4368371634792645e+00 2.2874301897822966e+00 1.2849655655699928e+01 0 1 0
274 1 4.8976066421884292e+00 4.0181798167438378e+00 1.4679748181412398e+01 0 1 0
267 1 7.8096369976615145e+00 8.4694303638154478e-01 1.4640317656682722e+01 0 1 0
273 1 1.4722664588050580e+00 6.8901019402900348e+00 1.4853319059588957e+01 0 1 0
258 1 3.1611043905145575e+00 5.6797794544458444e+00 1.3099399250823332e+01 0 1 0
277 1 8.0168821710081222e+00 6.5328654395735191e+00 1.4718107665768684e+01 0 1 0
259 1 9.3694237533052629e+00 5.1867055181960131e+00 1.3292061867382603e+01 0 1 0
281 1 4.3579759546612351e+00 9.8035138550731276e+00 1.4817623685080093e+01 0 1 0
292 1 6.1045098201706258e+00 8.2144821905251764e+00 1.3537070022691058e+01 0 1 0
286 1 1.4118355472190052e+00 1.2962052315042039e+01 1.4728676150278449e+01 0 1 0
263 1 2.9023118505994119e+00 1.1799956325554199e+01 1.3279418241690719e+01 0 1 0
294 1 6.4033786918293227e+00 1.4338192365011967e+01 1.3411476617495603e+01 0 0 0
289 1 7.5714005541444855e+00 1.2551628483169939e+01 1.4773121494229898e+01 0 1 0
290 1 9.5268277666939571e+00 1.1481181044080371e+01 1.3474339976611617e+01 0 1 0
252 1 9.6609006130931138e-02 5.4382535694145693e+00 1.0270793690525100e+01 0 1 0
168 1 1.6385935387933959e+00 1.5775048113587836e+01 1.2191657392514136e+01 0 0 0
205 1 3.0833909849996761e+00 1.7678264082907582e+01 1.3548126683663199e+01 0 0 0
186 1 4.6734775177006380e+00 1.5991070535696224e+01 1.5063745375163542e+01 0 0 0
182 1 9.1550784261986582e+00 1.7462870340417858e+01 1.3193213489060870e+01 0 0 0
190 1 1.5413150618947302e+00 1.9027946522583839e+01 1.4855474344320978e+01 0 0 0
210 1 2.5576609426080676e-01 2.0719426157865406e+01 1.3409623397241065e+01 0 0 0
212 1 6.4549756515538155e+00 2.0564790822705120e+01 1.3409219808144549e+01 0 0 0
195 1 7.8584995881845625e+00 1.8956413626450036e+01 1.4780428947080509e+01 0 0 0
185 1 3.0967951662578961e+00 2.3693386019022014e+01 1.3597118113951217e+01 0 0 0
194 1 4.9358567611157378e+00 2.2225165555219505e+01 1.4761065206187304e+01 0 0 0
209 1 8.9580974460864020e+00 2.4087231724668008e+01 1.3624179600458559e+01 0 0 0
201 1 1.1635635649328344e+00 2.5555019592680488e+01 1.4744124548930808e+01 0 0 0
183 1 5.8374410836593489e+00 2.7000944821084055e+01 1.3206951713384440e+01 0 0 0
204 1 7.3236832400083216e+00 2.5574147319556964e+01 1.5118191137013826e+01 0 0 0
262 1 3.0731120671380432e+00 3.0286752346518732e+01 1.3109192753271415e+01 0 0 0
179 1 7.6421380689547638e-02 2.3892839544148870e+01 1.0261043008575289e+01 0 0 0
127 1 8.1223807771854381e-02 1.1004865708189433e+01 4.2611624705303255e+00 0 1 0
125 1 3.6825871705103069e-02 3.0491232338382339e+01 4.1329576923812752e+00 0 0 0
137 1 3.1194783348192062e-02 2.1444919130386717e+00 9.7665449650691549e-01 0 1 0
681 1 2.3415768725604083e-01 6.7551815915594071e+00 5.5605679371827081e+00 2 0 2
271 1 1.7920696145274511e+00 3.4615964516303102e+00 1.7860147977689195e+01 0 1 0
268 1 9.3552614157164466e+00 1.9889992702628798e+00 1.6736898112926113e+01 0 1 0
276 1 8.1530220770924444e+00 3.6602146108658680e+00 1.8261939750411372e+01 0 1 0
302 1 6.7913890140244151e+00 1.8461955992243420e+00 1.9826411363748790e+01 0 1 0
272 1 3.7632855793544212e-01 4.6306943458858578e+00 1.6252541750813428e+01 0 1 0
280 1 5.2551939197585629e+00 6.3843043642719186e+00 1.7974988522131305e+01 0 1 0
270 1 3.4377404269551963e+00 4.9399234392357476e+00 1.9550852827145214e+01 0 1 0
275 1 6.8613347001793530e+00 5.1868949413766723e+00 1.6454355373474698e+01 0 1 0
322 1 9.4554004901761495e+00 5.3184401304476685e+00 1.9954580876086375e+01 0 1 0
279 1 3.0201048081029715e+00 7.8311363511959513e+00 1.6658795718010431e+01 0 1 0
278 1 1.7368893991827949e+00 9.3877550284364943e+00 1.8397612657725162e+01 0 1 0
285 1 4.4175450174708825e-01 1.1053188576104482e+01 1.6466656196854721e+01 0 1 0
8 1 7.9544397000838014e+00 2.8383750901153533e+01 3.0424253198805246e+01 0 0 -1
288 1 6.0103753871010586e+00 1.1026821635288382e+01 1.6637674592161751e+01 0 1 0
311 1 6.3694902527057717e+00 8.1372724634033595e+00 1.9706897093337815e+01 0 1 0
282 1 9.5600945165021187e+00 8.1850483608961078e+00 1.6377191147000879e+01 0 1 0
283 1 7.7670794055937940e+00 9.8090356502911611e+00 1.8253209590364690e+01 0 1 0
291 1 2.9786358364320007e+00 1.4196662371136823e+01 1.6411717418792776e+01 0 0 0
310 1 3.0642343713850639e+00 1.1280004883126669e+01 1.9591577574820676e+01 0 1 0
22 1 4.8260194676577388e+00 2.5172364446319925e+01 3.0432268045960683e+01 0 0 -1
287 1 4.8317451468206860e+00 1.2697913077642427e+01 1.7951748637295950e+01 0 1 0
293 1 6.4984102483229984e+00 1.4424206093888374e+01 1.9536254631028903e+01 0 0 0
297 1 9.1529771934373514e+00 1.1779038160345493e+01 1.9776632567855820e+01 0 1 0
189 1 2.3999113516410620e-01 1.7583183026261487e+01 1.6784811326113221e+01 0 0 0
184 1 1.6111918682539301e+00 1.5642342938111836e+01 1.8275077807490113e+01 0 0 0
218 1 3.2632974679047884e+00 1.7368649179348452e+01 1.9743626209544814e+01 0 0 0
187 1 6.1973784651852295e+00 1.7383921247148670e+01 1.6171897684695345e+01 0 0 0
188 1 7.7555850627813756e+00 1.5720567589173024e+01 1.7523062161976220e+01 0 0 0
198 1 8.9561448942766297e+00 1.7456244115166754e+01 1.9455732484283487e+01 0 0 0
191 1 3.2438971334731384e+00 2.0776737946949488e+01 1.6228662127242785e+01 0 0 0
246 1 2.4572626415789733e-01 2.0758572092951148e+01 1.9776181794531993e+01 0 0 0
193 1 4.8260045453829763e+00 1.8989310909322612e+01 1.7929098677716148e+01 0 0 0
244 1 6.1551156081304779e+00 2.0521022283015874e+01 1.9771745438364434e+01 0 0 0
196 1 8.8232955193057698e+00 2.0911575891993884e+01 1.6401711277996867e+01 0 0 0
192 1 1.6495335168952978e+00 2.2231481315450196e+01 1.7943306586652703e+01 0 0 0
240 1 3.1920281891102524e+00 2.4029392137904800e+01 1.9649958724832310e+01 0 0 0
203 1 5.9775289514610899e+00 2.3802500865490138e+01 1.6397550719311816e+01 0 0 0
197 1 7.5694389325204146e+00 2.2097474842125429e+01 1.8577825083539750e+01 0 0 0
245 1 9.2124210931184898e+00 2.3922224146117152e+01 1.9850948702934794e+01 0 0 0
206 1 3.0287279983119682e+00 2.7100990083994724e+01 1.6463880723254917e+01 0 0 0
202 1 4.7065595174024057e+00 2.5501569430270827e+01 1.8153761780381117e+01 0 0 0
211 1 6.1763374711723573e+00 2.7287251250709559e+01 1.9452963339274881e+01 0 0 0
199 1 9.1323910989161767e+00 2.7191125104741310e+01 1.6210365051990323e+01 0 0 0
207 1 1.7931004711251166e+00 2.8786380569829596e+01 1.8258918237944691e+01 0 0 0
241 1 3.3078252465183344e+00 3.0124723500403263e+01 1.9862621607078346e+01 0 0 0
26 1 3.2995653560072271e+00 2.6795526813585440e+01 2.8897782512212622e+01 0 0 -1
266 1 4.7051554652951637e+00 6.0053729452452698e-01 1.8495977701654041e+01 0 1 0
269 1 6.1391280100827847e+00 3.0512535514868418e+01 1.6630576836581582e+01 0 0 0
208 1 7.9543270128380428e+00 2.8821963145402336e+01 1.7911400358688205e+01 0 0 0
214 1 9.7062775763687075e+00 3.0021274742577816e+01 1.9634791682538399e+01 0 0 0
306 1 4.9665437355404061e+00 3.0898137815214972e+00 2.1346437370356178e+01 0 1 0
296 1 3.5547262316788784e+00 1.8616297901244738e+00 2.2906822107498854e+01 0 1 0
300 1 9.5239549861281372e+00 1.6700435024638494e+00 2.2552110372385343e+01 0 1 0
305 1 1.9114237071160693e+00 6.4331202474607894e+00 2.1300277014786495e+01 0 1 0
304 1 2.7666543620051803e-01 5.0650157180110194e+00 2.3002816394344094e+01 0 1 0
307 1 6.0927103825990718e+00 5.3069152909841257e+00 2.2594857362324916e+01 0 1 0
309 1 7.7637300250129657e+00 6.9056684855484525e+00 2.1488456606678483e+01 0 1 0
313 1 3.4054314345513577e+00 8.2782527901486400e+00 2.2895020856386004e+01 0 1 0
316 1 4.9415516136027442e+00 9.7930340477417044e+00 2.0988960676893925e+01 0 1 0
317 1 9.4061735072001653e+00 8.4507622815746526e+00 2.2833855546820615e+01 0 1 0
320 1 1.4439195314311537e+00 1.2907962550844394e+01 2.1496209904801013e+01 0 1 0
314 1 6.3281652785014151e+00 1.1284856908638108e+01 2.2895923132012989e+01 0 1 0
321 1 7.9391202623860933e+00 1.3081188304109565e+01 2.1483312087556996e+01 0 1 0
242 1 3.3087526536294702e+00 1.4724295113860729e+01 2.3020934695312683e+01 0 0 0
110 1 1.7722838438901817e-01 3.0488773867452871e+01 2.8767057792400607e+01 0 0 -1
215 1 4.8437714634128310e+00 1.5995270592239089e+01 2.1333217655386491e+01 0 0 0
216 1 6.4781887946154324e+00 1.7806927862526109e+01 2.2338148935278795e+01 0 0 0
220 1 9.5698011750335823e+00 1.4586889902014885e+01 2.2719309768784363e+01 0 0 0
221 1 1.7200000519910694e+00 1.9002108753979101e+01 2.1163314653323638e+01 0 0 0
222 1 3.2067573751549876e+00 2.0744565587246164e+01 2.2987106495983141e+01 0 0 0
225 1 8.0454059402500775e+00 1.9348613376306375e+01 2.1158838098336766e+01 0 0 0
226 1 9.3496709382488792e+00 2.0862312882925977e+01 2.2887608748184036e+01 0 0 0
813 1 1.1268076074174063e-01 1.8084314813061305e+01 2.2619635557611524e+01 1 -1 -4
224 1 4.5140569271064468e+00 2.2050888597567742e+01 2.1086510603466181e+01 0 0 0
233 1 5.6798064174426024e+00 2.3871279217648762e+01 2.2535282225045698e+01 0 0 0
230 1 1.4212475453152800e+00 2.5492443354118791e+01 2.1072319033689709e+01 0 0 0
235 1 2.7144086997661558e+00 2.7020162239175860e+01 2.2739340371757628e+01 0 0 0
234 1 7.3251763695230485e+00 2.5629222859161921e+01 2.1179072764625452e+01 0 0 0
228 1 9.2350230151990846e+00 2.7076114658871681e+01 2.2698603196860738e+01 0 0 0
295 1 1.6686001906899057e+00 6.2395907078236135e-01 2.1261253801183351e+01 0 1 0
237 1 4.8600428841785819e+00 2.8511098564697043e+01 2.1463849928416096e+01 0 0 0
219 1 6.4996275905831222e+00 3.0102820341475784e+01 2.2879928893646706e+01 0 0 0
299 1 8.1779424614958334e+00 2.6670873846042248e-01 2.1022764339944914e+01 0 1 0
303 1 1.6598188448214790e+00 3.3644828829774509e+00 2.4316167140152935e+01 0 1 0
85 1 1.5659968728434013e+00 7.7158453662136817e-01 2.7139293004387177e+01 0 1 -1
111 1 6.1941086892259474e+00 2.1979428097742848e+00 2.6010935473693067e+01 0 1 -1
308 1 7.6434717056038117e+00 3.2108722057657668e+00 2.4161013325738260e+01 0 1 0
88 1 7.9880041485628102e+00 7.1784915569895846e-01 2.7375198463636544e+01 0 1 -1
91 1 3.1670819670676180e+00 4.9812555757203620e+00 2.6174620753914027e+01 0 1 -1
100 1 1.7918173769476995e+00 6.8731312945724410e+00 2.7531765018892656e+01 0 1 -1
315 1 4.8801226217575238e+00 6.5432366208727633e+00 2.4511712227731948e+01 0 1 0
323 1 9.2271814175996614e+00 5.2206216031812351e+00 2.5432342472583265e+01 0 1 -1
97 1 7.7146864983751176e+00 6.6095195161042222e+00 2.7657783014920341e+01 0 1 -1
312 1 1.4857263943449945e+00 9.7763036725525527e+00 2.4325177793750051e+01 0 1 0
116 1 6.3857522609617696e+00 8.0694341248616688e+00 2.5863229866627385e+01 0 1 -1
104 1 5.0771978189848461e+00 9.7282993929523744e+00 2.7386063515979011e+01 0 1 -1
318 1 7.9141693896263616e+00 9.7134118930349729e+00 2.4566418645324909e+01 0 1 0
115 1 3.3670628403533249e+00 1.1277274977386966e+01 2.5886185516368144e+01 0 1 -1
324 1 3.1488249288314002e-01 1.4267570201487967e+01 2.5827567689882962e+01 0 0 -1
107 1 2.0190035987223602e+00 1.2895945720416362e+01 2.7566335838315993e+01 0 1 -1
319 1 4.7019802331870038e+00 1.3165896409586066e+01 2.4393125764043091e+01 0 1 0
90 1 9.7130701337185279e+00 1.1232160524116056e+01 2.5941618923628113e+01 0 1 -1
99 1 7.9728821571778301e+00 1.2963047317811796e+01 2.7145766579490200e+01 0 1 -1
213 1 1.3540979288063435e+00 1.6211144860169767e+01 2.4530610312115741e+01 0 0 0
3 1 2.7602653067970429e+00 1.7689560618965039e+01 2.6232168344543297e+01 0 0 -1
33 1 6.4744645203777154e+00 1.4765056256487092e+01 2.5861627902147937e+01 0 0 -1
4 1 4.5702382244387856e+00 1.6098765455797789e+01 2.7526736587809992e+01 0 0 -1
217 1 7.8417052895368986e+00 1.6173241193967485e+01 2.4312971178221133e+01 0 0 0
2 1 9.3807150325261919e+00 1.8008616679689339e+01 2.5963341299721733e+01 0 0 -1
32 1 2.7056559516574186e-01 2.1077698561562798e+01 2.6483353537899724e+01 0 0 -1
223 1 4.8540813440523118e+00 1.9070810713175547e+01 2.4336513642568441e+01 0 0 0
16 1 6.5127387679287549e+00 2.0631777932532316e+01 2.5864773862081861e+01 0 0 -1
229 1 1.1717185506723551e+00 2.2488566722348146e+01 2.4666565166008567e+01 0 0 0
35 1 3.0167133500698595e+00 2.3852655674117749e+01 2.6048575544122357e+01 0 0 -1
21 1 4.6690032363024470e+00 2.2302953284644929e+01 2.7283381625734691e+01 0 0 -1
239 1 9.5101556913871743e+00 2.3777479024995138e+01 2.5790183114502902e+01 0 0 -1
227 1 7.6300069146147385e+00 2.2527597652932570e+01 2.4343286952455884e+01 0 0 0
20 1 1.2799830842693836e+00 2.5462420900438367e+01 2.7441893655236512e+01 0 0 -1
232 1 4.1136184937618792e+00 2.5560399350295576e+01 2.4225663071219387e+01 0 0 0
243 1 6.1345718144570585e+00 2.6935277677692930e+01 2.5671544524627514e+01 0 0 -1
25 1 7.7426262126678704e+00 2.5503622136754331e+01 2.7202352186855322e+01 0 0 -1
236 1 1.3556215259525073e+00 2.8712690541339057e+01 2.4500250754499056e+01 0 0 0
19 1 3.0305923837908022e+00 3.0096868931036965e+01 2.6203795629980043e+01 0 0 -1
13 1 4.6658250772732170e+00 2.8659107416753280e+01 2.7427811182048934e+01 0 0 -1
298 1 4.8248254921279763e+00 2.5821679480176296e-01 2.4912939242338361e+01 0 1 0
326 1 9.6035032206184230e+00 3.0409836169109958e+01 2.5773215879187241e+01 0 0 -1
238 1 7.9781025079801138e+00 2.8696524208128274e+01 2.4381136162637276e+01 0 0 0
93 1 1.5561671384802869e+00 3.8704301913784627e+00 3.0755031417480268e+01 0 1 -1
86 1 2.7729939137287332e+00 2.1340783367258074e+00 2.9116256832447895e+01 0 1 -1
94 1 4.5906528456323041e+00 3.5563520364368379e+00 2.7864329769522882e+01 0 1 -1
96 1 7.8619926512898513e+00 3.5705593283069339e+00 3.0745813308818391e+01 0 1 -1
89 1 9.6147544848498292e+00 2.3820125045182228e+00 2.8864975753414981e+01 0 1 -1
103 1 4.8328026637594226e+00 6.7760866038981771e+00 3.0888881914307113e+01 0 1 -1
95 1 6.0329148715031717e+00 4.9763371336549467e+00 2.9293876200730928e+01 0 1 -1
101 1 1.4477975884725571e+00 9.9499447126763378e+00 3.0919530907162311e+01 0 1 -1
102 1 3.2392700914072212e+00 8.4132405613322856e+00 2.9443988785352126e+01 0 1 -1
106 1 7.8256860582805103e+00 9.7681909881600966e+00 3.0407346457614622e+01 0 1 -1
105 1 9.7253786410053493e+00 8.2919456882811637e+00 2.8955254964469603e+01 0 1 -1
15 1 1.3367932712624726e+00 2.8256201490925640e+01 3.0173791487214316e+01 0 0 -1
92 1 6.6031121664511065e+00 3.0360201072947206e+01 2.8909148062102645e+01 0 0 -1
109 1 6.4652269470550987e+00 1.1480486820569881e+01 2.8868365087057931e+01 0 1 -1
108 1 4.7381910194531915e+00 1.2811815607552726e+01 3.0645095708606952e+01 0 1 -1
98 1 3.4655281335335291e+00 1.4504897532944684e+01 2.9130471195395579e+01 0 0 -1
1 1 1.8423698832115074e+00 1.6061585135704824e+01 3.0849445529110270e+01 0 0 -1
87 1 4.4917950864917211e+00 3.0812660522862062e-01 3.0464068611582796e+01 0 1 -1
7 1 9.5612113331794291e+00 1.4569714072465015e+01 2.9186556466639054e+01 0 0 -1
5 1 6.7955063555578308e+00 1.7583432492917062e+01 2.8932527116910819e+01 0 0 -1
6 1 7.8149045607679479e+00 1.5878037461858680e+01 3.0695793474054277e+01 0 0 -1
10 1 1.5776076578686524e+00 1.9341542838807278e+01 2.7904902035622953e+01 0 0 -1
14 1 5.0446635933185489e+00 1.9027922979102108e+01 3.0414620748518146e+01 0 0 -1
11 1 3.4105076247872752e+00 2.0877565346988305e+01 2.9246050413603740e+01 0 0 -1
17 1 8.2141509956150962e+00 1.9638384744069540e+01 2.7998928419928120e+01 0 0 -1
12 1 1.5957956737562793e+00 2.2614917508429436e+01 3.0428192219421007e+01 0 0 -1
9 1 9.1635236092061554e+00 2.7130465090751684e+01 2.8318607944209582e+01 0 0 -1
23 1 6.4955949821706911e+00 2.3913512117062339e+01 2.8762959149422237e+01 0 0 -1
24 1 7.9051136734780840e+00 2.2879160079895264e+01 3.0745594274792971e+01 0 0 -1
18 1 9.5271905637554504e+00 2.1620078603494441e+01 2.9535949510856526e+01 0 0 -1
301 1 6.0654071968926054e-02 3.0475582921559820e+01 2.2748335818766868e+01 0 0 0
265 1 3.4553405454598405e+00 2.0444565938318231e+00 1.6052044196593918e+01 0 1 0
284 1 9.1744761946435904e+00 1.4313652550064480e+01 1.5973919205294147e+01 0 0 0
231 1 9.7798843205249397e-02 2.3776966826930561e+01 2.2610227103508223e+01 0 0 0
942 1 3.4547905881750474e-01 1.7317449002524270e+01 2.9210849399783235e+01 0 -2 0
325 1 5.1395881260997991e-02 8.1378031244330060e+00 2.5649472150016720e+01 0 1 -1
1416 1 3.7021019271571448e-01 5.9961429017002192e+00 2.9401152279559867e+01 1 2 -1
1476 1 1.5028351746795438e-01 1.3933351856338300e+01 1.9546354827588885e+01 0 2 -2
661 1 3.0141643251872902e-01 2.9853091028173893e+01 1.6350840203473759e+01 2 1 0
1294 1 2.1597789315791892e-02 7.7867448960370478e+00 3.1152382157189813e+01 0 -1 -2
1209 1 -3.7031359637467176e-03 2.3682536369636914e+01 2.9036949481570375e+01 1 3 -3
427 1 1.2300081929650128e+01 2.1629656427834583e+00 7.1696675763912943e-01 0 1 0
436 1 1.1192684486641976e+01 3.7765385885813525e+00 2.4742694590952508e+00 0 1 0
432 1 1.4008291672280194e+01 6.7867483234645032e-01 2.0382841957241706e+00 0 1 0
434 1 1.5641335424211455e+01 1.8044324446423212e+00 3.6477307501448637e+00 0 1 0
440 1 1.6826673715138352e+01 3.6897289926154579e+00 2.1347378991474120e+00 0 1 0
418 1 1.8634580754619023e+01 2.0464645310994336e+00 6.7639514473220586e-01 0 1 0
437 1 1.2624863336666897e+01 5.2835952063585525e+00 4.0861919212742057e+00 0 1 0
428 1 1.5504034429175485e+01 5.4497863385572636e+00 4.5495464413622205e-01 0 1 0
438 1 1.4380097315569829e+01 6.6676709400932337e+00 2.3792227979540796e+00 0 1 0
442 1 1.8552927231916161e+01 5.5380771741493158e+00 3.4493446854238821e+00 0 1 0
457 1 1.2540295730812501e+01 8.1100900744404996e+00 1.0745093064865407e+00 0 1 0
449 1 1.1207750196406478e+01 1.0209636040849112e+01 2.4088802314741424e+00 0 1 0
451 1 1.5761356121063173e+01 8.1343882098567253e+00 4.2934480106104127e+00 0 1 0
460 1 1.8651259280405377e+01 8.0434805019750861e+00 8.7067606636549033e-01 0 1 0
452 1 1.6893290716890771e+01 9.5989581450590400e+00 2.3640409871342611e+00 0 1 0
401 1 1.2245862025172150e+01 1.4467488471056811e+01 6.3435369215133586e-01 0 0 0
447 1 1.3072645319072898e+01 1.1517732505907984e+01 4.1105386151942174e+00 0 1 0
429 1 1.5608499709211449e+01 1.1241886314250856e+01 8.0530991711377609e-01 0 1 0
435 1 1.4104397588806597e+01 1.3131918744961123e+01 2.3262019737939523e+00 0 1 0
456 1 1.5551466240650711e+01 1.4466679878581884e+01 3.8802318308439441e+00 0 0 0
455 1 1.8910268830302925e+01 1.4376979823693274e+01 1.1122708314670620e+00 0 0 0
444 1 1.8733939217250104e+01 1.1236384466149849e+01 4.0585000242437994e+00 0 1 0
358 1 1.0970089982340662e+01 1.6059460961601800e+01 2.1637285423834078e+00 0 0 0
361 1 1.2513336954270855e+01 1.7636069975960460e+01 3.7490953244642680e+00 0 0 0
357 1 1.5949455135008447e+01 1.7929682709794150e+01 9.4801388392482366e-01 0 0 0
363 1 1.7379822885941856e+01 1.6179252303476844e+01 2.7689532667271624e+00 0 0 0
365 1 1.9271047032305010e+01 1.7729479794700801e+01 4.1160456029911154e+00 0 0 0
386 1 1.2599402341979369e+01 2.1000444517043725e+01 8.7679564588878167e-01 0 0 0
369 1 1.3963339053573904e+01 1.9245215254647725e+01 2.4258968311050508e+00 0 0 0
372 1 1.5684176086160582e+01 2.1048643204966794e+01 3.8534949874196154e+00 0 0 0
359 1 1.8647081166617511e+01 2.0705142724439312e+01 1.1692879729774170e+00 0 0 0
374 1 1.0994920956223698e+01 2.2585454316079343e+01 2.3319476985003389e+00 0 0 0
377 1 1.2332544115174851e+01 2.3874456439600685e+01 4.2292155096719934e+00 0 0 0