
# Create simulation box of size ~50 x 30 x 30 Angstrom
#
lattice	            sc 1
Lattice spacing in x,y,z = 1 1 1
region 	            all block 0 ${LEN} 0 ${WIDTH} 0 ${WIDTH} units box
region 	            all block 0 50.0330198878204 0 ${WIDTH} 0 ${WIDTH} units box
region 	            all block 0 50.0330198878204 0 31.2706374298874 0 ${WIDTH} units box
region 	            all block 0 50.0330198878204 0 31.2706374298874 0 31.2706374298874 units box
create_box          1 all
Created orthogonal box = (0 0 0) to (50.033 31.2706 31.2706)
  5 by 1 by 2 MPI processor grid

# fill box with randomly distributed atoms
#
create_atoms        1 random 1565 63782 all
Created 1565 atoms
  Time spent = 0.000431776 secs
mass                1 18.015
group               water region all
1565 atoms in group water

# Define potential
#
pair_style          sw
pair_coeff          * * mW_real.sw mW
Reading potential file mW_real.sw with DATE: 2019-02-27

# Run minimization
#
minimize            1.0e-8 1.0e-8 10000 1000
WARNING: Using 'neigh_modify every 1 delay 0 check yes' setting during minimization (../min.cpp:168)
Neighbor list info ...
  update every 1 steps, delay 0 steps, check yes
  max neighbors/atom: 2000, page size: 100000
  master list distance cutoff = 6.3065
  ghost atom cutoff = 6.3065
  binsize = 3.15325, bins = 16 10 10
  1 neighbor lists, perpetual/occasional/extra = 1 0 0
  (1) pair sw, perpetual
      attributes: full, newton on
      pair build: full/bin/atomonly
      stencil: full/bin/3d
      bin: standard
Per MPI rank memory allocation (min/avg/max) = 4.204 | 4.205 | 4.206 Mbytes
Step Temp E_pair E_mol TotEng Press 
       0            0    7172501.9            0    7172501.9     13558635 
     658            0   -17568.352            0   -17568.352   -1481.3608 
Loop time of 0.868555 on 10 procs for 658 steps with 1565 atoms

98.6% CPU use with 10 MPI tasks x no OpenMP threads

Minimization stats:
  Stopping criterion = max force evaluations
  Energy initial, next-to-last, final = 
         7172501.85272     -17568.3009613     -17568.3523229
  Force two-norm initial, final = 3.87863e+08 1.68061
  Force max component initial, final = 2.1828e+08 0.403605
  Final line search alpha, max atom move = 0.118104 0.0476673
  Iterations, force evaluations = 658 1001

MPI task timing breakdown:
Section |  min time  |  avg time  |  max time  |%varavg| %total
---------------------------------------------------------------
Pair    | 0.50259    | 0.65435    | 0.80701    |  13.0 | 75.34
Neigh   | 0.0079346  | 0.010105   | 0.011699   |   1.3 |  1.16
Comm    | 0.018403   | 0.15525    | 0.29931    |  24.7 | 17.87
Output  | 0          | 0          | 0          |   0.0 |  0.00
Modify  | 0          | 0          | 0          |   0.0 |  0.00
Other   |            | 0.04885    |            |       |  5.62

Nlocal:    156.5 ave 169 max 140 min
Histogram: 1 1 0 0 1 2 1 3 0 1
Nghost:    742 ave 771 max 698 min
Histogram: 1 0 1 1 0 1 0 3 2 1
Neighs:    0 ave 0 max 0 min
Histogram: 10 0 0 0 0 0 0 0 0 0
FullNghs:  4969.2 ave 5552 max 4180 min
Histogram: 1 1 1 0 0 1 1 3 1 1

Total # of neighbors = 49692
Ave neighs/atom = 31.7521
Neighbor list builds = 33
Dangerous builds = 0

# Add velocity/set timestep
#
velocity            all create ${TEMP} 120598 rot yes dist gaussian
velocity            all create 280 120598 rot yes dist gaussian
timestep            10.0

# Define output
#
compute	            1 all msd
thermo	            50
thermo_style        custom step temp press vol etotal ke pe c_1[4]

# Neighbor lists
#
neigh_modify        delay 0 every 1 check yes

# Set fixes
#
fix                 1 all momentum 10 linear 1 1 1 rescale
fix                 2 all nve
fix                 3 all temp/csvr ${TEMP} ${TEMP} 500.0 928347
fix                 3 all temp/csvr 280 ${TEMP} 500.0 928347
fix                 3 all temp/csvr 280 280 500.0 928347
fix                 4 all press/berendsen iso ${PRES} ${PRES} 1000.0 modulus 20000
fix                 4 all press/berendsen iso 0 ${PRES} 1000.0 modulus 20000
fix                 4 all press/berendsen iso 0 0 1000.0 modulus 20000

# Run 1 ns equilibration
#
dump                1 all atom 1000 eq.water.${NAME}.dump
dump                1 all atom 1000 eq.water.setup_atoms_280K_00.dump
run                 100000
Per MPI rank memory allocation (min/avg/max) = 3.454 | 3.455 | 3.456 Mbytes
Step Temp Press Volume TotEng KinEng PotEng c_1[4] 
     658          280   -261.72055    48924.927   -16262.996    1305.3563   -17568.352            0 
     700    180.12651 -0.021693793    48884.633    -15754.82    839.74745   -16594.567   0.40196403 
     750    223.59972   -216.03928     48779.75   -15369.784     1042.419   -16412.203    0.9585324 
     800    235.76444   -424.89636    48558.996   -15150.676    1099.1307   -16249.806    1.5880159 
     850    245.91456    -317.6657    48248.646   -15032.645    1146.4505   -16179.096    2.2458848 
     900    261.57062   -12.481027    47787.718   -14930.083    1219.4388   -16149.522    3.0365581 
     950    268.54566   -286.65983    47604.936   -14842.551    1251.9564   -16094.507    4.0410654 
    1000    274.00383    90.356498    47453.924    -14750.18    1277.4023   -16027.582    5.2706181 
    1050    274.78058    174.44754    47522.739   -14718.564    1281.0235   -15999.588    6.2590442 
    1100    264.27438   -154.63932    47356.287   -14697.653    1232.0437   -15929.697    7.7131446 
    1150    270.45916   -534.98996    47014.536   -14682.156    1260.8771   -15943.033      9.32283 
    1200      264.443   -278.99027     46941.45   -14723.258    1232.8298   -15956.088    10.905303 
    1250    277.48466    194.43876     46875.96   -14736.906    1293.6299   -16030.536    12.412691 
    1300    269.44431   -152.73648    46918.207   -14732.552    1256.1459   -15988.697    13.728367 
    1350    278.00667   -102.80706    46887.797   -14707.575    1296.0634   -16003.638    15.096731 
    1400    278.00383     -59.1547    46883.478   -14723.627    1296.0502   -16019.677    16.252388 
    1450    271.08391    102.41907    46961.541   -14750.542    1263.7897   -16014.331    17.199618 
    1500    270.13629   -185.60162    47025.726   -14713.394    1259.3718   -15972.766     18.83795 
    1550    262.79342    349.95027    47043.342   -14658.445    1225.1395   -15883.585    20.949898 
    1600    285.91839   -180.97856    46934.316   -14591.442    1332.9478    -15924.39    22.444397 
    1650    277.39855   -366.16569    46829.549   -14593.281    1293.2284    -15886.51    23.977542 
    1700    284.81879   -54.221026    46718.797   -14578.207    1327.8215   -15906.028    25.487664 
    1750    273.19125   -95.590359     46589.51   -14632.016    1273.6141    -15905.63    26.959905 
    1800    269.01019   -123.01412    46557.168   -14672.271     1254.122   -15926.393    27.992974 
    1850    271.36491    34.710612    46546.237   -14682.896    1265.0996   -15947.996    29.538697 
    1900    276.13065   -17.810985    46576.736   -14673.103    1287.3175    -15960.42    31.246173 
    1950    279.54482   -217.57603    46620.076   -14609.205    1303.2343    -15912.44    32.542212 
    2000    282.98297   -28.537239    46516.886   -14644.509    1319.2629   -15963.772    34.423549 
    2050    285.49784    71.535514    46626.479   -14566.525    1330.9872   -15897.512    36.707159 
    2100    283.84596   -110.68816    46676.026   -14531.775    1323.2862   -15855.061    38.844834 
    2150    282.15211   -148.18875    46720.985   -14600.533    1315.3895   -15915.922    40.651564 
    2200    285.40017      17.4925    46774.618   -14579.432    1330.5319   -15909.964     42.60908 
    2250    277.83308    109.71252    46645.253    -14575.63    1295.2542   -15870.884    44.560968 
    2300    284.35962      90.5515    46722.451    -14562.61    1325.6808   -15888.291    46.518969 
    2350      283.385   -317.05238    46741.002   -14554.223    1321.1372    -15875.36    47.872327 
    2400    276.78528    2.1297159    46778.492   -14548.306    1290.3693   -15838.676    49.148019 
    2450    282.23915   -190.59728    46699.393   -14579.852    1315.7952   -15895.647    50.824935 
    2500    283.87156    58.850076    46785.142   -14521.311    1323.4055   -15844.716    52.807605 
    2550    294.91489    285.41534    46878.058   -14506.082    1374.8894   -15880.971    54.809591 
    2600    291.09347    137.77152     46934.39   -14507.612    1357.0739   -15864.685    56.706007 
    2650    290.85348   -312.30049    47039.915   -14488.742    1355.9551   -15844.697    57.976051 
    2700      280.744   -8.8415545     46967.23   -14504.989    1308.8248   -15813.814    59.301078 
    2750    288.35987   -312.79036    46930.444   -14492.244    1344.3299   -15836.574    61.749889 
    2800    283.36479    172.93615    46724.689   -14537.075    1321.0429   -15858.118    63.520787 
    2850     282.4607   -299.72838     46791.46   -14529.647    1316.8281   -15846.475    65.146567 
    2900    282.13622   0.70992282     46695.26   -14555.087    1315.3154   -15870.402    66.796128 
    2950    278.63497    242.71825    46755.315   -14590.087    1298.9926   -15889.079    68.668696 
    3000    278.33211    9.1000503    46686.179   -14602.882    1297.5807   -15900.463    70.933658 
    3050    280.86832    138.41878    46792.989   -14569.648    1309.4044   -15879.052    72.080475 
    3100    283.22953    216.67722    46903.975   -14534.722    1320.4124   -15855.134    74.021746 
    3150    280.93896   -77.953479    46914.723   -14558.806    1309.7338    -15868.54     75.82389 
    3200    275.55948   -55.051231    46776.599   -14582.441    1284.6547   -15867.095    76.810249 
    3250     289.3949    194.55729    46711.625   -14590.042    1349.1553   -15939.197    77.932688 
    3300    282.94914    17.217089    46887.485   -14553.027    1319.1052   -15872.132    79.102037 
    3350    284.86278   -111.03658    46980.214   -14562.265    1328.0265   -15890.292    80.294701 
    3400     278.0459    -294.1191    46958.309   -14586.758    1296.2463   -15883.005    81.318517 
    3450    284.05163   -419.14615    46876.475   -14604.542     1324.245   -15928.787    83.066356 
    3500    272.49349    221.47502    46775.838    -14624.55    1270.3611   -15894.911    84.610687 
    3550    274.06563   -197.99293    46727.842   -14660.606    1277.6904   -15938.297    86.291245 
    3600    276.93143   -165.40885     46560.15   -14652.073    1291.0507   -15943.124    87.844431 
    3650    270.08061    274.47549    46520.648   -14674.723    1259.1123   -15933.836    89.057371 
    3700    273.36964   -33.549319    46585.451    -14657.73    1274.4457   -15932.176    91.098249 
    3750    276.78931    206.16712    46661.115   -14651.019    1290.3881   -15941.407    92.790656 
    3800    269.04392    80.436674     46783.77   -14656.481    1254.2792    -15910.76     93.97172 
    3850    281.78552    50.372772    46657.806   -14634.431    1313.6804   -15948.112    95.426236 
    3900    279.86244   -365.24663    46887.836   -14638.172    1304.7151   -15942.887    97.256777 
    3950    282.78615    35.147663    46865.544   -14591.367    1318.3454   -15909.713    99.234464 
    4000    286.38946   -460.45911    46941.501   -14609.215    1335.1439   -15944.359    100.82168 
    4050    272.69664     200.8537    46851.967   -14603.653    1271.3082   -15874.961    102.56799 
    4100    274.51516      66.2864    46851.301     -14612.6    1279.7861   -15892.386    104.96757 
    4150    280.23311    315.83111    46739.347   -14578.187    1306.4431    -15884.63    106.56325 
    4200    278.13739   -57.188643    46851.758   -14601.646    1296.6729   -15898.319    108.77761 
    4250    281.78912    227.22766     46914.05   -14564.867    1313.6972   -15878.564    110.94048 
    4300    283.63324   -186.53194    46977.583    -14583.24    1322.2944   -15905.534    112.79424 
    4350    273.72455    41.888191    46847.532   -14597.815    1276.1003   -15873.915    115.08129 
    4400     277.3393    238.24363    46777.197   -14620.985    1292.9522   -15913.937    115.81224 
    4450    275.20218    245.71725    46916.261   -14596.768     1282.989   -15879.757    117.18364 
    4500    281.39681   -144.40705    46931.756   -14565.257    1311.8682   -15877.126     118.5317 
    4550    272.57576   -144.70274    46784.003   -14613.012    1270.7446   -15883.756    119.75266 
    4600    266.13652    70.650042    46764.667   -14644.708     1240.725   -15885.433     122.1763 
    4650     278.2361    76.553273    46782.639   -14625.891    1297.1331   -15923.024    123.50993 
    4700    271.91141   -200.35434    46812.962   -14594.071    1267.6474   -15861.718    124.53595 
    4750    290.92492   -77.601739    46764.746   -14568.622    1356.2882   -15924.911    126.13289 
    4800    281.19293   -336.08535    46483.781   -14618.064    1310.9177   -15928.982    127.39244 
    4850    280.69238    388.59218    46555.555   -14551.145    1308.5842   -15859.729    128.74133 
    4900    282.57748    76.170525    46721.128   -14500.578    1317.3725    -15817.95    130.32678 
    4950    295.25826   -170.12534     46809.57   -14464.693    1376.4902   -15841.183     132.1616 
    5000    294.70151    129.90371    46826.206   -14450.784    1373.8946   -15824.678    134.06342 
    5050     287.6058    215.96788    46836.535   -14482.341    1340.8145   -15823.156     136.0949 
    5100    279.53588    86.741397    46795.028   -14529.306    1303.1926   -15832.498    138.24409 
    5150    275.67308     248.1458    46784.446   -14533.097    1285.1843   -15818.281    139.68826 
    5200    270.80511    31.646077    46828.199   -14593.762    1262.4899   -15856.252    140.63465 
    5250    285.11396    168.34602    46840.136   -14587.106    1329.1976   -15916.304    141.83203 
    5300    287.47675    144.47295    46881.133   -14540.749    1340.2129   -15880.962    142.74736 
    5350    277.90418   -211.62891    46742.926   -14630.583    1295.5857   -15926.169    143.74716 
    5400    280.98027   -62.597694    46816.952   -14580.629    1309.9264   -15890.556    145.38881 
    5450    285.09598   -392.00668    46652.709   -14581.647    1329.1137   -15910.761    146.37951 
    5500     277.0843    9.8336755    46589.526   -14600.748    1291.7634   -15892.511    147.78897 
    5550    277.64456   -30.495245    46753.337   -14589.738    1294.3753   -15884.113    148.61315 
    5600    273.33765       59.031    46604.751   -14612.626    1274.2965   -15886.922    150.67427 
    5650     277.1313   -86.187285    46791.183   -14611.764    1291.9825   -15903.746    152.66921 
    5700    275.93832    229.85525    46895.715   -14581.712    1286.4208   -15868.132    154.49584 
    5750    267.85926    197.33841    46917.765   -14641.759    1248.7564   -15890.515    156.05047 
    5800    277.81789     52.58023    46872.964   -14570.046    1295.1834    -15865.23    157.38117 
    5850    284.89636   -58.307785    46840.376   -14596.849    1328.1831   -15925.033    159.01901 
    5900    267.24432   -38.694395    46861.725   -14653.977    1245.8895   -15899.867    161.03521 
    5950    272.80436     206.2273     46775.37   -14665.634    1271.8104   -15937.445    161.56118 
    6000    271.61775     258.4563    46934.477   -14665.255    1266.2784   -15931.534    163.46295 
    6050    289.12852    -5.653307    46868.299   -14616.308    1347.9134   -15964.222    164.67897 
    6100    286.66373   -285.42179    46750.154   -14617.717    1336.4226    -15954.14    165.13778 
    6150    271.64537    187.17381     46737.89    -14659.25    1266.4072   -15925.657    166.44164 
    6200    269.65605   -199.11412    46618.063   -14648.015     1257.133   -15905.148    167.98844 
    6250    267.49645    -6.704873    46636.471   -14651.806     1247.065   -15898.871    169.49426 
    6300    276.35255    121.17684    46581.297   -14590.105     1288.352   -15878.457     171.6001 
    6350    272.29288     189.3359    46687.516   -14596.317    1269.4259   -15865.743    174.03163 
    6400    279.86737    285.83985    46851.602   -14555.961     1304.738   -15860.699       174.86 
    6450    287.77022    -16.27395    46928.518    -14486.97     1341.581   -15828.551    175.79431 
    6500    283.06995    180.42604    47014.925   -14511.257    1319.6684   -15830.925    177.14434 
    6550    276.99032     121.9917    47051.814   -14534.283    1291.3252   -15825.608    178.98197 
    6600    283.18414    -173.0955     47019.62   -14546.939    1320.2007    -15867.14    180.05658 
    6650    269.02298   -73.049291    46833.544   -14636.478    1254.1816   -15890.659    179.91906 
    6700    277.56079   -106.83032    46843.453   -14598.578    1293.9848   -15892.563    181.26474 
    6750    267.96285    276.74194    46709.631   -14609.357    1249.2393   -15858.597    182.07923 
    6800    280.18721    166.62841     46811.19   -14551.711    1306.2291    -15857.94     183.2446 
    6850    279.88625    141.93101    46866.323   -14581.112     1304.826   -15885.938    185.36952 
    6900    277.88745    93.917114     46905.47   -14551.517    1295.5077   -15847.024    186.87448 
    6950    284.08631   -72.118958    47028.653   -14548.515    1324.4067   -15872.922    188.35722 
    7000     271.1936    122.81291    46872.116   -14562.274     1264.301   -15826.575    189.46114 
    7050    287.68524    -72.91703    46829.446   -14562.494    1341.1848   -15903.679    191.02692 
    7100    271.08543     87.06677    46776.447   -14595.821    1263.7967   -15859.617    192.04829 
    7150    283.98691   -154.23342    46873.627   -14597.348    1323.9432   -15921.291     193.9279 
    7200    280.91446    140.47854    46832.331   -14601.669    1309.6195   -15911.289    193.67099 
    7250    284.83147     177.6199    46763.638   -14665.776    1327.8806   -15993.657    194.44488 
    7300    272.96007   -130.62972     46781.05   -14673.971    1272.5363   -15946.508     196.4462 
    7350    276.14052    66.139785    46786.414   -14695.473    1287.3635   -15982.836    197.61926 
    7400    273.46106     -156.072    46796.817   -14672.856    1274.8719   -15947.728    199.80455 
    7450    277.20906    46.060083    46785.052   -14633.293     1292.345   -15925.638    201.28719 
    7500    273.50301    366.06584    46844.036   -14648.772    1275.0675   -15923.839    202.94604 
    7550    270.68144    195.41515    46812.591   -14686.199    1261.9134   -15948.112    203.76091 
    7600    273.75995   -192.72104    46677.076   -14703.799    1276.2653   -15980.064    205.05898 
    7650    271.06428   -50.644239    46702.987    -14670.01    1263.6981   -15933.708    206.77828 
    7700    280.34195    289.13422    46676.679   -14617.708    1306.9505   -15924.658    208.01929 
    7750    282.49233    125.35721    46603.005   -14570.076    1316.9756   -15887.052    209.92662 
    7800    273.43556    16.540146    46726.061   -14577.492     1274.753   -15852.245    212.40652 
    7850    276.13299   -135.34866    46738.605   -14586.584    1287.3284   -15873.913    214.43618 
    7900    272.37189     93.69684    46750.417   -14670.078    1269.7942   -15939.872    215.50846 
    7950    267.08268    283.36862    46856.332    -14667.92    1245.1359   -15913.056    215.73508 
    8000    280.53722   -406.21857    46708.701   -14643.649    1307.8608    -15951.51    216.57448 
    8050    274.87397   -401.05531    46710.839   -14653.324    1281.4588   -15934.782    216.55189 
    8100    273.48144   -78.916189    46741.612   -14682.282    1274.9669   -15957.249    218.14444 
    8150    265.63685   -177.40426    46656.723   -14679.507    1238.3955   -15917.903    220.45089 
    8200    278.02039    79.956785    46569.513   -14684.862    1296.1274    -15980.99    221.58076 
    8250    274.31554   -64.037591    46713.469    -14683.28    1278.8555   -15962.136    224.12257 
    8300    276.99497    -158.6319    46878.015   -14685.714    1291.3469    -15977.06    225.93556 
    8350    281.44988   -187.66414    46863.539   -14650.136    1312.1157   -15962.252    227.08712 
    8400    278.93099   -174.14861    46635.378   -14636.614    1300.3726   -15936.987    227.88044 
    8450     281.6784    520.78497    46701.719   -14574.911     1313.181   -15888.092    230.48696 
    8500     284.8718   -107.60675    46824.086   -14596.494    1328.0686   -15924.562    233.30648 
    8550    276.85278   -65.956021    46734.826   -14561.055     1290.684   -15851.739    235.61597 
    8600    288.19182   -72.559006     46756.22   -14585.933    1343.5465    -15929.48    238.95544 
    8650    279.34543     30.22932    46560.413   -14548.662    1302.3048   -15850.967    241.42041 
    8700    290.12583    210.71547    46650.383   -14558.254    1352.5628   -15910.817    244.91248 
    8750    283.34556    389.11601    46868.526   -14606.293    1320.9533   -15927.247    247.59962 
    8800    284.96915   -335.70181    46760.895   -14603.753    1328.5224   -15932.275    247.91698 
    8850    271.17199    193.44887    46718.797   -14678.899    1264.2002   -15943.099    248.77318 
    8900    279.59632   -151.58789    46804.757   -14667.947    1303.4744   -15971.422    249.91304 
    8950    273.06322     119.3921     46670.75   -14666.472    1273.0172   -15939.489     249.7451 
    9000    276.62899   -32.831044    46697.515   -14628.839    1289.6408    -15918.48    250.57092 
    9050    274.00279    282.70497    46589.519   -14610.084    1277.3974   -15887.481    250.93054 
    9100    272.82811    326.33694    46649.117    -14686.52    1271.9211   -15958.441    251.46704 
    9150    281.69541    346.25838    46719.264   -14635.825    1313.2603   -15949.085    253.04151 
    9200    285.47537   -218.93468    46754.768   -14561.336    1330.8824   -15892.218    255.35846 
    9250    282.20901    23.741882    46829.279   -14541.663    1315.6547   -15857.318    257.01414 
    9300    270.24643    118.35071    46829.645   -14618.589    1259.8853   -15878.475    258.53005 
    9350    276.05439   -293.42955    46790.768   -14649.284    1286.9619   -15936.245    260.58044 
    9400    281.87018    130.38528    46616.032   -14588.977    1314.0751   -15903.052    261.63321 
    9450    279.68791     397.6869    46712.329   -14569.189    1303.9014   -15873.091    262.95229 
    9500    283.72566   -34.029847    46805.127   -14583.156    1322.7253   -15905.882    265.20051 
    9550    271.98444    173.10283    46797.074   -14602.233    1267.9879   -15870.221    267.28405 
    9600    281.63606   -210.06678    46822.605   -14560.734    1312.9836   -15873.717    268.46545 
    9650    286.08174   -108.82969    46682.995   -14533.094    1333.7093   -15866.804    269.24919 
    9700    282.83178    251.17356    46644.522   -14545.645    1318.5581   -15864.203    271.48709 
    9750    275.80569    247.74743      46696.5   -14549.043    1285.8025   -15834.845    273.01757 
    9800     273.2117   -17.265148    46820.259   -14583.941    1273.7094    -15857.65    274.87414 
    9850    277.53412   -386.39366    46698.568   -14594.157    1293.8604   -15888.017    275.31996 
    9900    285.19563   -98.077593    46701.812   -14600.801    1329.5783   -15930.379    275.47876 
    9950    284.20013    200.00785    46717.779   -14615.539    1324.9373   -15940.476    277.21788 
   10000    280.09411    80.670193    46778.325   -14646.877    1305.7951   -15952.672    278.40283 
   10050    270.23317    467.24534    46830.619   -14662.288    1259.8235   -15922.111     279.2992 
   10100    275.37406    203.08079    46975.196   -14611.832    1283.7903   -15895.622    281.59929 
   10150    284.58243    75.372344    46814.614    -14585.43    1326.7196    -15912.15    283.54422 
   10200    270.51262    189.90167    46701.821   -14641.468    1261.1263   -15902.594    283.78452 
   10250    272.05142    249.85089    46637.852   -14669.043    1268.3002   -15937.344    284.86517 
   10300    275.07183    142.92859    46620.027   -14689.098    1282.3813   -15971.479    284.89322 
   10350    275.38445   -488.95729    46761.722    -14611.78    1283.8387   -15895.619    286.94693 
   10400    283.69025    234.33887    46799.214   -14624.307    1322.5602   -15946.868    288.65944 
   10450    279.98594    45.034555    46843.759   -14611.109    1305.2908     -15916.4    291.24871 
   10500    287.27996    165.41495    46867.133    -14586.51    1339.2954   -15925.805    292.01207 
   10550    278.56351    80.192251    46933.397   -14572.606    1298.6594   -15871.266     293.9104 
   10600    287.70971    5.3368227    46913.263   -14530.289    1341.2989   -15871.588    296.03261 
   10650    283.75916   -73.045707     46727.83   -14483.795    1322.8815   -15806.676    297.22262 
   10700    281.17844   -484.54045    46631.824   -14514.156    1310.8502   -15825.007    298.05538 
   10750    283.64642   -483.90262    46558.006   -14529.658    1322.3559   -15852.014    298.90067 
   10800     283.6291     44.61226    46499.149   -14559.061    1322.2751   -15881.337    300.84322 
   10850    284.60438   -219.10745    46513.658   -14539.544    1326.8219   -15866.366     303.1415 
   10900    285.92474    374.57617    46501.808   -14554.455    1332.9774   -15887.432     304.9548 
   10950    287.04377    27.527088    46455.618   -14522.165    1338.1943   -15860.359    307.22255 
   11000     275.5133    268.33357    46697.025   -14585.498    1284.4394   -15869.937    310.71052 
   11050     285.1511   -229.06924    46633.144   -14565.464    1329.3707   -15894.834    312.59623 
   11100    284.60327    -76.60235    46540.957    -14594.09    1326.8167   -15920.907    315.00917 
   11150    273.47599    102.70976    46552.673   -14625.293    1274.9415   -15900.235     315.0436 
   11200    267.38836    -86.47627    46594.203   -14623.146     1246.561   -15869.707    316.07446 
   11250    287.04014    115.36266    46702.058   -14530.386    1338.1774   -15868.564    317.56959 
   11300    274.15522    255.17544    46626.989   -14567.056     1278.108   -15845.164    318.23683 
   11350    276.22592    170.46462    46536.864   -14567.866    1287.7616   -15855.628    319.31018 
   11400    273.88479    16.283925    46634.694   -14601.731    1276.8473   -15878.578    321.96163 
   11450    277.02733    -231.3827    46739.402   -14573.996    1291.4978   -15865.494    323.70182 
   11500    276.67691    88.409578    46753.883   -14597.784    1289.8641   -15887.648    325.33236 
   11550    283.30691    -68.31482    46640.472    -14617.24    1320.7731   -15938.013    326.11656 
   11600     277.1879   -557.87716    46493.074   -14611.109    1292.2464   -15903.355    327.02276 
   11650    278.92713    259.34651    46446.837   -14580.607    1300.3547   -15880.961    329.56077 
   11700    288.43869    44.624117    46609.104   -14565.593    1344.6974   -15910.291    330.97685 
   11750    288.92518    7.4797083    46671.699   -14530.827    1346.9654   -15877.792    332.51392 
   11800    279.34294    94.304216    46949.048   -14589.728    1302.2931   -15892.021    335.03717 
   11850    280.36302    25.908831    47013.272   -14599.595    1307.0487   -15906.643    337.29294 
   11900    282.71815    5.7506132    46876.983   -14574.149    1318.0283   -15892.177    337.25035 
   11950    271.64815   -84.454373    46980.112   -14626.214    1266.4201   -15892.634    339.40025 
   12000    276.45935   -1.8780711    46882.419   -14588.845    1288.8499   -15877.695    340.21728 
   12050    277.66798    101.70208    46856.164   -14585.468    1294.4845   -15879.952    342.35638 
   12100    277.32509   -50.306237    46883.319   -14542.765    1292.8859   -15835.651    343.62517 
   12150    284.86502    378.54685    46864.382   -14492.294     1328.037   -15820.331    346.19701 
   12200    283.44168   -34.471219    47000.528   -14534.895    1321.4014   -15856.297    347.67595 
   12250    284.37335    95.678377    46976.839   -14551.187    1325.7448   -15876.931    348.52973 
   12300    277.87288   -334.35272    46890.059   -14571.405    1295.4397   -15866.845    348.79994 
   12350    280.87063     -32.9228    46797.814   -14571.968    1309.4152   -15881.384    349.96763 
   12400    285.47917   -250.17117    46691.778   -14596.299    1330.9002   -15927.199    349.38789 
   12450    274.04439    84.979204    46829.772   -14575.807    1277.5913   -15853.398    351.58541 
   12500    279.67159   -2.9185648     46682.03   -14655.251    1303.8253   -15959.076    352.84893 
   12550    276.93795   -304.03683    46698.826   -14633.573    1291.0811   -15924.655     355.1779 
   12600    278.16206   -347.06257    46709.308   -14590.723    1296.7879   -15887.511    357.38747 
   12650    283.11624    403.80744    46832.118   -14526.077    1319.8842   -15845.961     358.9942 
   12700    278.02279    282.57924    46853.428   -14570.838    1296.1386   -15866.976    360.45014 
   12750    287.32933     190.8575    46941.021    -14518.48    1339.5256   -15858.006    361.98926 
   12800    291.34778   -380.19815     46806.51   -14530.988    1358.2595   -15889.248    363.13114 
   12850    283.60981    31.267708    46813.149   -14567.248    1322.1852   -15889.433    363.79093 
   12900    279.01356   -247.05784    46757.778   -14597.447    1300.7575   -15898.205      365.029 
   12950      268.201   -224.24246    46787.326   -14624.498    1250.3496   -15874.847    365.87277 
   13000    292.80363    91.862501    46753.024   -14540.327    1365.0467   -15905.374    367.72562 
   13050    290.43284    87.875774    46832.592   -14513.054    1353.9941   -15867.048    370.12926 
   13100    289.54305   -190.33131    46739.065   -14512.124    1349.8459    -15861.97    370.42378 
   13150     290.2283   -524.11726    46661.931   -14508.945    1353.0405   -15861.985    371.18058 
   13200    287.93401    -157.7193     46896.48   -14476.801    1342.3446   -15819.145    373.83919 
   13250    288.74093   -3.5517687    47063.606   -14456.628    1346.1064   -15802.734    376.04961 
   13300    286.88028    202.66336    46851.526   -14497.699    1337.4321   -15835.131    375.54734 
   13350    288.61661    -45.91193    46863.876   -14522.932    1345.5268   -15868.459    378.08949 
   13400    278.60128   -2.7032277    46731.154   -14582.571    1298.8355   -15881.406    379.85257 
   13450    280.30698     135.2681    46638.911   -14584.574    1306.7875   -15891.361    381.46214 
   13500    282.56184   -124.46114    46540.511   -14625.423    1317.2996   -15942.723    383.32703 
   13550    279.23792    -129.9679    46615.837   -14593.457    1301.8035    -15895.26    385.48218 
   13600     282.2734     216.0503    46664.632   -14642.636    1315.9549   -15958.591    387.47792 
   13650    271.77227   -83.768308    46593.889   -14636.636    1266.9988   -15903.635    388.78346 
   13700    274.38086   -95.261962    46734.117   -14601.994      1279.16   -15881.154    391.01929 
   13750    283.83898    177.95988     46791.64   -14612.388    1323.2536   -15935.642    392.83709 
   13800    276.32948      314.412    46942.716    -14572.11    1288.2444   -15860.354    395.14029 
   13850    279.47929   -64.535953    46936.407   -14550.602    1302.9288   -15853.531    396.45536 
   13900    277.43173   -211.70411    46977.359   -14583.985    1293.3831   -15877.368    397.97859 
   13950    282.18755   -246.34445    46760.792   -14568.491    1315.5547   -15884.046    398.34182 
   14000    284.45388    15.745808    46762.155   -14578.477    1326.1203   -15904.597    400.34335 
   14050    287.19941    209.94719    46791.508   -14550.055    1338.9199   -15888.975    401.86596 
   14100     286.5775   -259.07299    46856.194   -14549.207    1336.0206   -15885.227    404.50356 
   14150    269.50225   -63.670255    46737.388   -14579.047     1256.416   -15835.463    406.44863 
   14200    286.99555    164.70261    46692.721   -14583.979    1337.9695   -15921.949    407.35012 
   14250    287.78559   -113.01006    46730.226   -14571.055    1341.6527   -15912.707    409.56415 
   14300    269.83172   -13.960289    46726.155   -14674.575    1257.9519   -15932.527    411.37972 
   14350    272.37195    315.05639    46652.808    -14689.06    1269.7945   -15958.854    412.46659 
   14400    283.19777   -181.74404    46804.658   -14604.232    1320.2643   -15924.497    415.78145 
   14450    277.35362    121.50048    46727.706   -14649.169    1293.0189   -15942.188    416.36427 
   14500    284.78119    425.04611    46865.333   -14590.971    1327.6462   -15918.618    418.66607 
   14550    272.62114   -234.09228    46953.318   -14642.567    1270.9562   -15913.523    419.79321 
   14600    280.94245    120.90682    47023.708   -14577.893      1309.75   -15887.643    421.83136 
   14650    279.11354   -509.99722    46957.336   -14600.903    1301.2237   -15902.127    422.51203 
   14700    276.49473    193.39801    46822.127   -14622.745    1289.0148   -15911.759    422.98699 
   14750     273.0707   -89.349206     46680.93   -14637.421    1273.0521   -15910.473    422.80188 
   14800    271.89067    467.35843     46799.32   -14681.489    1267.5507   -15949.039    424.52411 
   14850    277.28056   -38.680701    46951.831   -14667.113    1292.6783   -15959.791     426.8356 
   14900    266.97894   -48.915584    46858.394   -14695.487    1244.6523   -15940.139    427.69472 
   14950    273.03696   -23.837367    46688.534   -14655.211    1272.8947   -15928.106    428.27322 
   15000    270.26782    69.894763    46688.707   -14691.444     1259.985   -15951.429    430.16361 
   15050    268.09073    168.04617    46794.737    -14695.24    1249.8355   -15945.076    432.95385 
   15100      270.408   -145.81052     46721.01   -14719.791    1260.6386   -15980.429    432.85459 
   15150    277.35303   -315.69742    46758.177   -14668.833    1293.0162   -15961.849    435.31034 
   15200    278.99324    132.71323    46696.933   -14645.828    1300.6628    -15946.49    436.18973 
   15250    268.49547    233.85629     46709.44   -14654.089    1251.7224   -15905.812    438.06398 
   15300    269.21341   -240.83548    46697.168   -14646.763    1255.0694   -15901.832     438.6019 
   15350     280.1377   -242.22084    46739.056   -14649.041    1305.9983   -15955.039    439.04691 
   15400    279.40647   -111.83312    46679.053   -14633.121    1302.5893    -15935.71    439.93913 
   15450    280.32317    417.41474    46822.888   -14578.699    1306.8629   -15885.562    442.23847 
   15500    275.42302      50.1513    46799.352   -14609.328    1284.0185   -15893.347    443.54535 
   15550    277.72549     396.3851    46837.214   -14610.145    1294.7526   -15904.898    446.74675 
   15600    286.11527   -370.33039     46712.14   -14543.746    1333.8657   -15877.612    447.81601 
   15650    271.65887    297.58903    46890.982   -14555.359    1266.4701   -15821.829    449.91783 
   15700    279.24116    230.66998    47025.657   -14607.411    1301.8187   -15909.229    453.03801 
   15750    270.13782    11.362273    46916.349   -14593.372     1259.379   -15852.751    453.67089 
   15800    279.24417   -55.466621    46949.974   -14602.824    1301.8327   -15904.657    456.55139 
   15850    277.96836   -175.46393    46686.779       -14652    1295.8848   -15947.885    456.05856 
   15900    278.68386    53.603871    46744.566   -14664.483    1299.2205   -15963.704    457.00866 
   15950    278.78807   -62.953534    46791.533    -14662.48    1299.7063   -15962.186    459.66209 
   16000    281.48907   -173.66952    46748.774   -14605.791    1312.2983   -15918.089    460.79454 
   16050    277.01253    80.935206    46815.136   -14599.132    1291.4288   -15890.561    463.73867 
   16100    282.18228   -190.31242    46819.034   -14568.836    1315.5301   -15884.367    465.46865 
   16150    281.86485   -194.12805    46678.605   -14589.762    1314.0502   -15903.812    464.54904 
   16200    278.57095   -324.64504    46461.815   -14609.985    1298.6941   -15908.679    465.33396 
   16250    268.51544    312.42856    46594.913    -14647.45    1251.8155   -15899.265     467.1296 
   16300    278.86989    331.34007    46788.518   -14606.809    1300.0878   -15906.897    469.82814 
   16350    270.80706    46.570225    46734.304   -14622.253     1262.499   -15884.752    469.85348 
   16400    274.01413    349.13378    46770.142   -14558.861    1277.4503   -15836.311    470.82755 
   16450    285.80389    139.64927     46872.74   -14525.314     1332.414   -15857.728    473.47867 
   16500    278.32787   -41.380182    46779.735   -14564.806    1297.5609   -15862.367    475.80492 
   16550    274.44182   -77.545506    46739.781   -14567.594    1279.4442   -15847.039     475.6072 
   16600    275.35514   -148.14709    46903.887   -14524.449    1283.7021   -15808.151    478.50458 
   16650    280.24034    212.77486    46787.321    -14565.63    1306.4768   -15872.106    478.56003 
   16700    288.13186   -85.222992    46683.214   -14560.801     1343.267   -15904.068    479.42838 
   16750     282.2806    56.737805    46581.932   -14558.115    1315.9885   -15874.104    480.04529 
   16800    276.71607    222.21898    46591.952    -14565.95    1290.0467   -15855.997    481.05786 
   16850     291.8291    242.71879    46629.242   -14497.366    1360.5034    -15857.87    482.57186 
   16900    288.66063   -221.29767    46722.147   -14496.127    1345.7321   -15841.859    485.14658 
   16950    287.76987    21.007562    46708.575   -14534.214    1341.5794   -15875.794    485.61944 
   17000    287.93496   -202.27981     46706.44   -14556.185     1342.349   -15898.534    487.46701 
   17050    285.26005    356.77985    46805.136   -14507.477    1329.8786   -15837.355     490.6589 
   17100    285.94133   -186.64094    46817.398   -14499.341    1333.0547   -15832.396    493.18678 
   17150    283.22727   -1.6442747    46747.306   -14493.293    1320.4018   -15813.695    494.43247 
   17200    287.86544    -126.3669    46883.323   -14521.162    1342.0249   -15863.187    499.54745 
   17250    274.97561    236.07831    46876.087   -14563.974    1281.9327   -15845.906    500.46451 
   17300    276.25333    -8.777027    46802.619     -14617.1    1287.8894    -15904.99    501.24519 
   17350    278.35095   -109.90164    46818.682   -14588.888    1297.6685   -15886.556     503.2179 
   17400    286.18219     6.845215    46963.045   -14580.328    1334.1776   -15914.506    505.87614 
   17450    288.77417   -105.08761    46996.032   -14543.866    1346.2614   -15890.128    507.24605 
   17500    281.05667    12.793079    46925.139   -14601.666    1310.2825   -15911.949    508.63316 
   17550    274.46836    81.454238    46684.484   -14638.921    1279.5679   -15918.489    508.52388 
   17600    285.22476    4.2373625    46807.278    -14542.74    1329.7141   -15872.454    510.77998 
   17650    277.54793    88.280004    46886.996   -14560.658    1293.9248   -15854.583    511.99773 
   17700     274.8493   -185.92613    46785.809    -14590.45    1281.3438   -15871.794     513.1405 
   17750    271.05744    54.777916     46732.78   -14588.423    1263.6662   -15852.089    514.51931 
   17800    284.56479    194.66011    46781.002   -14563.051    1326.6373   -15889.689    516.09553 
   17850    285.18676   -216.61343    46848.294   -14566.076    1329.5369   -15895.613    517.50855 
   17900    283.70596    66.298651    46708.155   -14579.167    1322.6335   -15901.801    519.68433 
   17950    280.23755    203.39784    46717.843   -14562.016    1306.4638    -15868.48    521.97339 
   18000    296.51932   -168.53772    46729.207   -14512.227    1382.3692   -15894.596    523.62939 
   18050    277.17184    44.979788    46829.053    -14544.62    1292.1715   -15836.792    527.69708 
   18100    276.55543   -203.20134    46730.204     -14616.6    1289.2978   -15905.897    527.62117 
   18150    279.18141    31.685207     46785.46   -14598.922    1301.5401   -15900.462     531.4407 
   18200     283.8509     13.74032     46903.75    -14612.04    1323.3092   -15935.349    533.27349 
   18250     288.9535    46.188116    46906.645   -14539.094    1347.0975   -15886.191    535.32697 
   18300    281.83758   -44.037861    46820.034   -14554.089    1313.9231   -15868.012    536.92174 
   18350    285.02604   -15.362833    46889.909   -14517.164    1328.7877   -15845.952     539.2355 
   18400    276.96238   -144.45666    46773.601   -14562.972     1291.195   -15854.167    541.15791 
   18450    285.74505   -153.21878    46484.597   -14521.857    1332.1397   -15853.996    539.91963 
   18500    286.74613   -26.367647     46512.81   -14529.918    1336.8067   -15866.725    542.97369 
   18550    277.29229    76.568297    46711.327   -14591.211     1292.733   -15883.945    546.67608 
   18600    271.44279    343.96531    46862.534   -14582.624    1265.4627   -15848.086    550.62514 
   18650    279.74546   -28.167447    46802.251   -14565.944    1304.1697   -15870.114    552.69605 
   18700    282.50436   -40.490241    46768.943   -14562.827    1317.0316   -15879.859     554.9721 
   18750    289.48912   -208.08615    46775.467   -14539.175    1349.5945   -15888.769    556.46334 
   18800      281.925   -46.397507    46716.398   -14533.038    1314.3307   -15847.369     556.9885 
   18850    279.75847    227.32954    46480.199    -14568.06    1304.2303   -15872.291    558.35788 
   18900    280.95114    100.73304    46611.823   -14561.515    1309.7906   -15871.305    561.91204 
   18950    283.55129    271.20624    46652.811   -14576.055    1321.9124   -15897.968    562.74841 
   19000    289.20135    322.15259    46813.343   -14539.812    1348.2529   -15888.065    566.27876 
   19050     281.5039   -15.614599    46716.604    -14608.93    1312.3675   -15921.297    566.15817 
   19100     274.5508    62.224319     46698.85   -14567.151    1279.9522   -15847.103    568.17423 
   19150    278.64663    -223.5502    46703.072   -14583.496     1299.047   -15882.543    568.07452 
   19200    279.37906    180.81357    46906.862   -14554.862    1302.4615   -15857.323    571.41252 
   19250     284.9814     162.7365    46725.114   -14542.515    1328.5795   -15871.095    570.44539 
   19300    285.98173   -52.236767    46801.934   -14513.017    1333.2431    -15846.26    573.90999 
   19350    281.12836    7.3263019    46862.072   -14537.798    1310.6168   -15848.415    576.25349 
   19400    281.93344    324.88115    46737.488   -14517.324      1314.37   -15831.694    578.85613 
   19450    279.48674    17.665827    46670.525   -14574.263    1302.9635   -15877.227    579.53979 
   19500     285.0254   -21.995724    46702.289   -14539.426    1328.7847   -15868.211    581.85561 
   19550    273.48512   -154.79963    46602.346   -14580.415    1274.9841   -15855.399    584.60806 
   19600    282.82585    26.792466    46795.195   -14593.014    1318.5304   -15911.544    587.75669 
   19650     275.0023   -14.245398    46755.371    -14594.41    1282.0571   -15876.467    588.42037 
   19700    287.08251   -148.34618    46678.303   -14551.562    1338.3749   -15889.936    588.78679 
   19750    288.94005    193.59589     46767.27   -14551.011    1347.0347   -15898.045    591.77554 
   19800    282.38162   -160.60032    46749.767   -14569.566    1316.4594   -15886.025    593.19602 
   19850    278.21906   -75.613393    46795.312   -14580.208    1297.0536   -15877.261    596.39706 
   19900    283.72922    92.812671     46665.08   -14585.118    1322.7419    -15907.86    595.82729 
   19950    280.22477    245.06277    46605.747     -14587.9    1306.4042   -15894.304      595.702 
   20000    273.74525   -35.406839    46623.783   -14629.847    1276.1968   -15906.044    598.48935 
   20050    291.90049    126.97865    46859.161   -14545.285    1360.8363   -15906.121    602.18591 
   20100    281.99006   -384.92257    46905.609   -14592.194     1314.634   -15906.828    602.85845 
   20150    271.85802    16.399351    46735.572   -14639.717    1267.3985   -15907.115    602.08862 
   20200     279.6322    43.153092     46702.13   -14635.533    1303.6416   -15939.174    603.37286 
   20250    271.40795   -174.90771    46847.161   -14614.569    1265.3003   -15879.869    605.89073 
   20300    281.34382    58.659994    46899.198   -14609.648    1311.6212   -15921.269    609.09559 
   20350    273.62776    68.321186    46876.752   -14607.905     1275.649   -15883.554    610.65795 
   20400    281.47429   -36.725568    46830.635   -14616.933    1312.2295   -15929.162    611.44574 
   20450    279.32839     102.4201    46744.978   -14612.217    1302.2253   -15914.442    613.83839 
   20500    277.75113   -35.898405    46623.187   -14584.925    1294.8721   -15879.797    613.70051 
   20550    278.76397   -49.122653    46771.523   -14607.769     1299.594   -15907.363    616.64637 
   20600    277.39325    161.01611    46714.963   -14615.625    1293.2037   -15908.828    618.45304 
   20650    276.45671    135.28189    46781.666   -14622.324    1288.8376   -15911.162    619.43648 
   20700    286.67916    222.12781    46807.245   -14548.419    1336.4945   -15884.913    620.12334 
   20750    286.31893   -113.74405    46858.037   -14538.069    1334.8151   -15872.884    621.67096 
   20800    275.28967   -98.282873    46810.614   -14560.291    1283.3969   -15843.688    622.70799 
   20850    274.09812    158.96613    46768.168   -14603.008    1277.8419    -15880.85     622.9079 
   20900    287.71357    118.85508    46734.217   -14596.612    1341.3169   -15937.929    624.05712 
   20950    279.31858   -468.03654     46799.85   -14622.653    1302.1795   -15924.833    625.65612 
   21000     276.8458    109.13844    46807.209   -14686.012    1290.6515   -15976.663    625.87289 
   21050    273.56693    86.591676    46799.582   -14688.112    1275.3654   -15963.477    627.18815 
   21100    274.49803   -158.53571    46768.625   -14700.073    1279.7062    -15979.78     627.1378 
   21150    267.22604    7.7113817    46901.541   -14691.174    1245.8043   -15936.979    628.92845 
   21200    281.85353   -10.953876    46902.647   -14654.464    1313.9975   -15968.461    628.80166 
   21250    277.60537    117.71816    46753.415   -14610.498    1294.1926    -15904.69    629.16836 
   21300    272.33471   -220.31374    46802.479   -14632.271    1269.6208   -15901.892    630.79819 
   21350    284.98253     90.63406    46747.564   -14626.152    1328.5848   -15954.737    630.36928 
   21400    275.52242   -167.28232    46640.566   -14631.693    1284.4819   -15916.175    631.10684 
   21450    275.74523   -60.367444     46501.97   -14620.046    1285.5207   -15905.567    631.39304 
   21500    274.49925    463.44543    46623.827   -14630.591    1279.7119   -15910.303    633.00957 
   21550    269.50229    229.00047    46704.039   -14584.972    1256.4161   -15841.389    635.11043 
   21600    288.96005  -0.86413116    46831.707   -14547.467     1347.128   -15894.595    638.58375 
   21650    287.15179   -17.722558    46914.295   -14584.471    1338.6979   -15923.169    641.88962 
   21700    281.39096   -98.012431    47002.933   -14561.779     1311.841    -15873.62    644.56085 
   21750    293.39392    148.26958    46841.174   -14545.137    1367.7986   -15912.936    644.37424 
   21800    278.83281    202.57252    46978.327   -14545.492    1299.9149   -15845.407    647.37484 
   21850    283.00016   -388.41822    46818.558   -14559.063     1319.343   -15878.406    648.96891 
   21900    286.05704   -289.68304    46756.265   -14576.861    1333.5942   -15910.455    651.57634 
   21950    269.03472    -90.82192    46798.733   -14611.844    1254.2364   -15866.081    654.00854 
   22000    276.96974   -30.749728    46805.428   -14605.587    1291.2293   -15896.816     655.2765 
   22050    283.48881   -300.90952    46641.188   -14629.991    1321.6211   -15951.612    656.06069 
   22100    282.03372    -136.5333    46531.071   -14573.537    1314.8375   -15888.374    655.96242 
   22150    271.88563   -43.813748    46609.014   -14642.758    1267.5272   -15910.285    657.08868 
   22200    284.74112     60.53055    46608.117   -14582.169    1327.4594   -15909.629    658.36633 
   22250    284.98517   -275.57746    46705.417   -14561.742    1328.5971   -15890.339    660.22479 
   22300    287.30272   -339.21023    46650.303   -14568.844    1339.4015   -15908.246    660.69748 
   22350    278.04498    145.86719    46719.736   -14589.071    1296.2421   -15885.313    662.12712 
   22400    286.96834       11.865    46743.136   -14550.179    1337.8427   -15888.022    664.26804 
   22450    277.95615    283.11217     46866.58   -14562.551     1295.828   -15858.379    665.50473 
   22500    283.90874    -147.3474    46842.949   -14554.675    1323.5788   -15878.254    666.36559 
   22550    278.86081    34.119613    46921.251   -14477.741    1300.0455   -15777.787    667.61278 
   22600    286.84259    4.6990386    46817.803   -14506.151    1337.2564   -15843.407    667.92139 
   22650    293.43887   -707.56391    46801.352   -14568.227    1368.0082   -15936.235    669.59858 
   22700    281.08718   -98.733631    46804.876   -14538.902    1310.4248   -15849.327    671.95957 
   22750    278.81371   -526.48078    46820.823   -14605.891    1299.8259   -15905.717    673.26357 
   22800    282.06893   -390.28351    46792.946   -14532.927    1315.0016   -15847.929    676.11759 
   22850    281.24871   -90.681992    46854.537   -14586.332    1311.1778   -15897.509    678.15698 
   22900     280.0726    133.09006    46767.018   -14561.228    1305.6948   -15866.922    678.14934 
   22950    275.67148    237.30523    46734.841   -14550.977    1285.1768   -15836.154    680.93806 
   23000    287.51352    347.39038    46814.115   -14533.377    1340.3843   -15873.762    683.13133 
   23050    284.52271    50.086798    46945.903   -14595.656    1326.4412   -15922.097    687.60065 
   23100    283.54744   -232.43692    46914.865   -14644.001    1321.8944   -15965.896    688.02401 
   23150    270.61886    156.96623    46969.998   -14629.266    1261.6216   -15890.888    689.51124 
   23200    280.29451    -48.63754    46955.742   -14615.598    1306.7293   -15922.327    691.69409 
   23250    280.44446   -104.29097    46955.358   -14630.612    1307.4284   -15938.041    693.10586 
   23300    286.01653   -166.84437    46775.797   -14626.509    1333.4053   -15959.914    693.82801 
   23350    278.98576    93.908558    46742.801    -14605.46     1300.628   -15906.088    695.66029 
   23400    281.36321   -65.284506    46629.876   -14560.277    1311.7116   -15871.989    696.31709 
   23450    275.23362    245.72589    46853.111   -14565.983    1283.1355   -15849.119    700.82616 
   23500    271.18493    256.86604    46770.245   -14599.218    1264.2606   -15863.479    700.05773 
   23550    280.27315    109.80111    46709.465   -14575.187    1306.6297   -15881.817    701.63031 
   23600     275.2872    151.64651    46810.177   -14578.465    1283.3853    -15861.85    704.72418 
   23650     271.3272    161.65831    46701.236   -14606.709    1264.9239   -15871.633    705.41685 
   23700     275.2895   -231.00379    46682.715   -14618.943    1283.3961   -15902.339    704.92898 
   23750    273.60474    99.331775    46650.152    -14650.09    1275.5417   -15925.631    706.04532 
   23800    281.15938   -304.90846    46546.983   -14660.174    1310.7613   -15970.935    705.02899 
   23850    277.41071    197.87872    46777.519   -14637.628    1293.2851   -15930.913    708.93678 
   23900    274.58634   -16.791676    46808.992   -14627.212    1280.1179    -15907.33    711.04406 
   23950    290.41493   -298.81024    46669.096   -14588.959    1353.9106    -15942.87    709.73409 
   24000    277.28327    219.26643    46851.129    -14558.61     1292.691   -15851.301    714.79049 
   24050    283.85775    339.06239     46737.12    -14512.97    1323.3411   -15836.311    714.87855 
   24100    283.73204    48.657914     46711.26     -14529.7    1322.7551   -15852.455    716.69398 
   24150    275.84021    150.04211    46662.129   -14565.474    1285.9635   -15851.438    717.71787 
   24200    275.81454   -185.94445    46667.449   -14614.409    1285.8438   -15900.253    720.92799 
   24250    272.61714    51.287392    46846.553   -14652.956    1270.9375   -15923.893    725.09298 
   24300    275.88385   -51.938963     46823.59   -14589.566    1286.1669   -15875.733    725.24874 
   24350    281.22778   -251.01415    46830.692   -14617.815    1311.0802   -15928.895    726.87872 
   24400    278.93913    31.256242    46841.791   -14629.759    1300.4106   -15930.169    730.49257 
   24450    271.36387   -93.847294    46691.213   -14666.592    1265.0948   -15931.687    729.81873 
   24500    283.98333    127.72619    46690.203   -14584.319    1323.9266   -15908.246    731.69506 
   24550    269.95466   -6.8164588    46619.465   -14664.682    1258.5251   -15923.207    732.41886 
   24600    273.73032     361.4355    46628.124   -14621.082    1276.1272   -15897.209    733.89049 
   24650    273.47844     24.67651    46712.186   -14575.658    1274.9529   -15850.611    736.53435 
   24700     271.5765   -130.31647    46677.523   -14616.215    1266.0861   -15882.301     738.3945 
   24750    285.11092   -61.552245    46683.599   -14594.633    1329.1834   -15923.816    740.96026 
   24800    272.45011    152.55278    46601.667   -14626.966    1270.1589   -15897.125    743.61675 
   24850    277.53292     200.4353    46424.628   -14612.391    1293.8549   -15906.246    744.27909 
   24900    283.86602    186.91953    46479.219    -14551.79    1323.3797    -15875.17    747.18228 
   24950    281.48691    125.25272    46735.285    -14520.01    1312.2883   -15832.298    751.14772 
   25000    286.42751    247.50432    46644.309    -14515.69    1335.3213   -15851.011    751.38948 
   25050    286.78836   -51.822588    46668.181    -14539.86    1337.0036   -15876.864    751.92702 
   25100    279.77222    29.366523    46643.255   -14541.028    1304.2944   -15845.322    753.08663 
   25150    277.17851   -158.45548    46598.247   -14577.499    1292.2026   -15869.702    752.78264 
   25200     278.0209    164.25657    46732.623   -14596.831    1296.1298   -15892.961    755.45545 
   25250    275.29222    75.079819    46599.089   -14582.797    1283.4087   -15866.206    755.46939 
   25300    280.15677    93.531053    46727.369   -14540.508    1306.0872   -15846.595     758.2732 
   25350    280.91434   -126.68909     46741.37   -14550.003     1309.619   -15859.622    760.47352 
   25400    289.21134    185.09594    46634.201   -14534.924    1348.2995   -15883.223    761.44239 
   25450    276.62578     32.29392    46813.054   -14546.928    1289.6258   -15836.554    765.73735 
   25500    279.74563   -124.44248    46740.004   -14519.196    1304.1705   -15823.366    769.09992 
   25550    281.42489    178.78355    46746.842   -14564.542    1311.9992   -15876.541    771.58803 
   25600    273.02573    11.912211    46770.106   -14581.338    1272.8424   -15854.181    775.36982 
   25650    274.77328    4.0403473    46888.465     -14565.8    1280.9894   -15846.789    778.43499 
   25700    288.30768    98.700125     46752.83   -14593.923    1344.0866    -15938.01    779.13329 
   25750    279.70139   -299.36355    46632.783   -14602.556    1303.9642    -15906.52    780.51071 
   25800    275.82069   -91.280857    46784.107   -14597.524    1285.8724   -15883.397    784.01339 
   25850    284.10327   -140.79553    46808.203   -14550.883    1324.4857   -15875.369    787.46734 
   25900    282.59773   -256.33064    46767.122   -14571.787    1317.4669   -15889.254    789.16892 
   25950    288.78604    250.14961    46777.703   -14526.514    1346.3167   -15872.831    791.66464 
   26000    290.18353    104.29693    46972.604   -14523.516    1352.8318   -15876.348    796.72994 
   26050    274.39285   -263.04113    46965.591   -14591.314    1279.2159    -15870.53    799.15361 
   26100     276.2491   -294.89512     47000.24   -14597.357    1287.8697   -15885.227    802.63441 
   26150      281.818   -179.38427    46865.557   -14617.051    1313.8318   -15930.883    802.22247 
   26200    282.37986   -229.34779    46882.131   -14594.224    1316.4512   -15910.675     802.9967 
   26250     275.5123    191.18844    46903.793   -14562.078    1284.4347   -15846.513    806.51828 
   26300     275.5227   -177.84666    46783.013   -14566.044    1284.4832   -15850.527    804.41589 
   26350    285.21928   -74.661811    46763.454   -14569.333    1329.6886   -15899.022    805.69403 
   26400    276.00489   -110.47738    46972.697   -14550.347    1286.7312   -15837.078    811.81025 
   26450    277.56768   -46.399537     46830.55   -14591.729    1294.0169   -15885.746    812.64652 
   26500    278.58697    424.58946    46821.587   -14572.928    1298.7688   -15871.697    814.46158 
   26550    284.05377   -6.9268006    46710.496   -14611.875    1324.2549    -15936.13    815.62322 
   26600     280.7455    179.06628    46724.396   -14631.272    1308.8318   -15940.104    819.07671 
   26650    270.76585   -248.29498    46669.742   -14649.524    1262.3068    -15911.83    819.58051 
   26700     277.1606    84.333209    46671.857   -14642.153    1292.1191   -15934.272    820.62347 
   26750     283.8887   -236.72987    46651.006   -14621.473    1323.4854   -15944.958    822.27637 
   26800    284.44084    93.064522    46650.411   -14613.127    1326.0595   -15939.187    821.80077 
   26850    285.02703    309.71708    46651.362   -14606.916    1328.7923   -15935.708    820.83765 
   26900    271.61538   -119.06012    46649.438   -14633.187    1266.2673   -15899.454    822.55295 
   26950    268.78573   -9.3430567    46660.285   -14677.183    1253.0756   -15930.258     824.3661 
   27000    277.85973    4.1077452    46685.347    -14643.55    1295.3784   -15938.929    824.38158 
   27050    269.11731    258.26583     46699.35   -14677.019    1254.6214    -15931.64    824.96707 
   27100    277.63009   -139.92957     46719.51   -14639.064    1294.3078   -15933.372    826.13216 
   27150    277.61687   -24.953959    46806.148   -14647.417    1294.2462   -15941.663    829.22265 
   27200    272.02832    8.8751529    46832.317   -14679.041    1268.1925   -15947.234    831.97159 
   27250    281.23711   -94.696981    46837.211   -14631.787    1311.1237    -15942.91    833.94075 
   27300    275.49702   -270.81851    46662.014   -14666.718    1284.3635   -15951.081      833.256 
   27350    275.26998    9.0116343    46709.275   -14624.494     1283.305   -15907.799    838.08641 
   27400    286.39015    96.143707    46737.787    -14572.73    1335.1471   -15907.877    840.03783 
   27450    281.81854    252.71457    46734.909   -14561.741    1313.8343   -15875.575    842.08246 
   27500    278.92752    330.49033    46741.559   -14540.157    1300.3564   -15840.514    845.83059 
   27550    275.59395    61.794699    46771.116   -14582.466    1284.8154   -15867.281    847.98663 
   27600    277.02371   -170.07149    46541.533   -14575.938    1291.4809   -15867.419    846.61685 
   27650    277.91685     128.3374    46485.897   -14602.167    1295.6447   -15897.812    847.10304 
   27700    283.85635    141.66575    46575.158   -14594.748    1323.3346   -15918.083    849.34392 
   27750    282.71633    -146.1093    46764.637   -14534.693    1318.0198   -15852.713    851.43466 
   27800     287.0445    18.672809    46889.848   -14531.042    1338.1977    -15869.24    852.56972 
   27850    292.50103    155.12864     46905.95   -14506.176     1363.636   -15869.812    856.53319 
   27900    286.34407   -19.539743    46805.873   -14603.348    1334.9323    -15938.28    856.30921 
   27950    274.13279     146.2606    46884.224   -14627.109    1278.0035   -15905.112    855.50312 
   28000    279.98488    343.26768    46912.694   -14602.446    1305.2859   -15907.732    858.78408 
   28050    286.14661    20.931538    46941.232   -14554.095    1334.0118   -15888.107    861.11974 
   28100    281.93358   -87.309788    46996.065   -14589.071    1314.3707   -15903.442    865.89873 
   28150    281.33877    3.7600811    46963.299   -14562.764    1311.5977   -15874.362    866.86307 
   28200    280.24647    106.83965    46836.262   -14640.366    1306.5054   -15946.872    866.77977 
   28250    282.14286   -192.74933    46670.177   -14599.693    1315.3463    -15915.04    864.38061 
   28300    277.12001    58.659059    46513.966   -14609.835    1291.9299   -15901.765    865.65461 
   28350     270.2871    304.10768    46714.581   -14643.665    1260.0749    -15903.74    870.87998 
   28400    278.18586   -98.682257    46747.098   -14683.232    1296.8988   -15980.131    873.24578 
   28450    266.38203    26.635101    46788.999   -14702.516    1241.8695   -15944.385    876.23134 
   28500    280.58838    114.20276    46616.863   -14659.594    1308.0994   -15967.693    873.48421 
   28550    275.70705    189.26844    46736.024   -14611.536    1285.3426   -15896.879    876.67292 
   28600    280.81404   -273.40797    46738.087   -14586.757    1309.1514   -15895.908    877.75178 
   28650    276.32561    41.051357     46765.62   -14621.952    1288.2264   -15910.178    879.90985 
   28700    278.49139   -304.49801    46741.119   -14582.521    1298.3232   -15880.844    881.64316 
   28750    284.12624     435.4421    46729.452   -14564.268    1324.5928   -15888.861    883.97738 
   28800    274.91642    -121.6121    46724.291   -14564.044    1281.6568     -15845.7    886.60312 
   28850    284.80935    188.65117    46879.981   -14528.782    1327.7774   -15856.559     889.8129 
   28900    281.43695   -250.46541    46930.033   -14542.386    1312.0554   -15854.441    892.71072 
   28950    282.62445    -82.68582    46838.795   -14600.032    1317.5915   -15917.624    892.72204 
   29000    276.29244   -241.39243    46672.445   -14631.283    1288.0718   -15919.355    893.32083 
   29050    287.43919    62.048518    46692.341   -14552.313    1340.0377   -15892.351    896.22481 
   29100      290.456   -193.63476    46620.716   -14556.503    1354.1021   -15910.605    896.27073 
   29150    281.17221    316.98547    46659.802   -14530.946    1310.8212   -15841.767    898.36818 
   29200    284.93656   -221.52235    46784.876   -14525.826    1328.3705   -15854.196    900.05931 
   29250    284.88141     234.4171    46675.495   -14572.754    1328.1134   -15900.867    900.17285 
   29300    285.23119    21.246524    46693.292   -14599.356    1329.7441     -15929.1    900.29321 
   29350    279.45623   -355.87586    46683.024     -14610.5    1302.8213   -15913.322    904.00344 
   29400    269.55593     130.1773    46620.066   -14671.053    1256.6662   -15927.719    904.35963 
   29450    269.27832   -168.48163    46669.292   -14646.354     1255.372   -15901.726    905.71958 
   29500    280.89912    87.159323    46504.546    -14666.49     1309.548   -15976.038    902.42298 
   29550    271.16146    3.3710714     46566.45   -14672.876    1264.1512   -15937.027    905.33243 
   29600    278.15251    47.017783    46681.004   -14568.626    1296.7433    -15865.37    907.74559 
   29650    279.11281   -83.010047    46717.613   -14587.648    1301.2203   -15888.868    907.15342 
   29700    278.12442    144.63768    46771.106   -14629.803    1296.6124   -15926.416    910.80458 
   29750    273.06581   -34.391793    46708.575   -14622.104    1273.0293   -15895.133    913.23397 
   29800    277.99709    0.2707475    46576.964   -14639.173    1296.0188   -15935.191    913.37597 
   29850     275.5494    -402.7961    46574.637   -14598.221    1284.6077   -15882.829    913.02339 
   29900    285.95889   -472.00912    46350.577   -14633.658    1333.1366   -15966.794    911.90549 
   29950    277.87138   -166.50474    46353.556   -14574.015    1295.4328   -15869.447    914.20115 
   30000    276.92804    66.701909    46364.358   -14571.731    1291.0349   -15862.766    918.44391 
   30050    284.85592    -34.18657    46585.819   -14563.634    1327.9946   -15891.628    922.34777 
   30100    279.14216   -14.635488    46606.705   -14598.248    1301.3571   -15899.605    922.62433 
   30150     282.7001     128.8164    46775.072    -14586.27    1317.9442   -15904.215    925.64036 
   30200    284.67256   -219.50417     46773.05   -14604.182    1327.1398   -15931.322    928.33509 
   30250    280.14817   -51.737369    46754.608   -14609.855    1306.0471   -15915.902    929.52129 
   30300    282.04173    161.05669    46791.072   -14573.317    1314.8749   -15888.192     931.8898 
   30350      283.671    11.957989    46810.215   -14549.579    1322.4705    -15872.05    932.76002 
   30400    291.17415   -257.89236    46607.055   -14545.712    1357.4501   -15903.162    930.85282 
   30450    275.35935    163.66517    46736.606   -14581.705    1283.7217   -15865.427    937.65115 
   30500    283.03977     188.2624    46647.399   -14567.478    1319.5277   -15887.006    936.33828 
   30550    274.65192   -60.948201    46538.405   -14567.667    1280.4237   -15848.091    936.25406 
   30600    280.02908    88.944708    46598.915   -14556.881    1305.4919   -15862.373     938.8648 
   30650    284.94225   -183.50742    46654.345   -14599.469     1328.397   -15927.866    941.64996 
   30700    270.84219    178.27097    46668.729   -14615.826    1262.6628   -15878.489    943.18877 
   30750    279.48762     88.73975    46782.864   -14579.825    1302.9676   -15882.792    946.43481 
   30800    273.19402   -97.076284    46551.378   -14592.544    1273.6269   -15866.171     944.2187 
   30850    272.28624    150.17704    46671.444   -14617.919    1269.3949   -15887.314    947.36707 
   30900    273.90323    31.623916    46622.653   -14667.783    1276.9333   -15944.717    950.39556 
   30950    272.65226    78.109181    46647.776    -14650.02    1271.1013   -15921.121    951.02298 
   31000    272.56224    188.86992    46792.525   -14685.655    1270.6816   -15956.337    955.91601 
   31050    266.98925    151.47489    46818.676   -14680.154    1244.7004   -15924.854    959.63097 
   31100     275.3874    15.394184    46845.739   -14670.065    1283.8525   -15953.917    962.29192 
   31150     271.9717    73.248814    47003.286   -14654.284    1267.9285   -15922.213    966.19823 
   31200    268.62799    54.506792    46876.529   -14682.332    1252.3402   -15934.673    965.86564 
   31250    271.72653   -156.09769    46847.586   -14690.185    1266.7855    -15956.97    967.27894 
   31300    292.88553   -49.172994    46792.666   -14571.932    1365.4285    -15937.36    969.55178 
   31350    277.63369    58.611922    46837.968   -14540.878    1294.3246   -15835.203    973.39702 
   31400    279.91238   -174.68498    46858.466   -14554.058    1304.9478   -15859.005    976.01186 
   31450     274.4766    22.949367    46857.678    -14596.25    1279.6063   -15875.856    977.98943 
   31500     277.5639   -324.44309    46542.236   -14560.093    1293.9993   -15854.092    975.41861 
   31550    286.34941    314.53248    46803.783   -14536.288    1334.9572   -15871.245    980.31474 
   31600    290.16753    238.68858    46903.678   -14576.719    1352.7572   -15929.476    984.92155 
   31650    280.63615   -135.01341    46984.283   -14599.159     1308.322   -15907.481    988.70956 
   31700    278.66905   -178.17728    46815.363   -14604.214    1299.1515   -15903.365    987.00449 
   31750    281.08353   -29.490941    46720.327   -14564.428    1310.4077   -15874.836    990.46744 
   31800    282.63207    249.28515    46819.575    -14532.79     1317.627   -15850.417     992.2028 
   31850    289.01241    159.15533    46658.681     -14548.9    1347.3721   -15896.272    991.66081 
   31900    281.82928    92.455226    46936.967   -14545.869    1313.8844   -15859.754    998.11182 
   31950      282.911     88.62299    47005.314    -14516.35    1318.9274   -15835.277    1002.0822 
   32000    286.58925    153.72919    47038.124   -14540.187    1336.0753   -15876.262    1003.8849 
   32050     281.6251    155.77615    46967.071   -14544.816    1312.9325   -15857.749    1005.8356 
   32100     287.1701   -222.85159    46887.199   -14559.729    1338.7833   -15898.513    1006.3139 
   32150    286.53967    167.01458    47088.496   -14558.169    1335.8442   -15894.013    1010.1887 
   32200    286.15577    52.727368    46915.221   -14564.525    1334.0545   -15898.579    1009.6695 
   32250    286.47194   -290.42946    46897.433   -14521.893    1335.5284   -15857.421    1009.1073 
   32300    287.74094   -175.41974    46858.138   -14554.062    1341.4445   -15895.507    1010.5044 
   32350    281.23119    54.540774    46658.879   -14521.479    1311.0961   -15832.575    1009.0033 
   32400    282.02915   -90.656599    46669.122   -14576.744    1314.8162    -15891.56    1011.7926 
   32450     284.5296    81.237737    46719.901   -14579.004    1326.4733   -15905.477    1014.0599 
   32500    282.90382    333.23301    46653.923   -14612.249    1318.8939   -15931.143    1014.4708 
   32550    273.38384    160.80191    46669.194   -14582.382    1274.5119   -15856.894    1016.1113 
   32600    271.43761    259.20344    46752.056   -14581.532    1265.4386   -15846.971    1018.0649 
   32650    274.92056   -104.30284    46919.412   -14572.488    1281.6761   -15854.164     1021.759 
   32700    281.49044   -208.95828    46796.588   -14626.723    1312.3048   -15939.028    1020.5751 
   32750    283.36002   -86.404506    46715.099   -14610.201    1321.0207   -15931.222    1022.2628 
   32800    272.17237    8.8864923    46864.792    -14659.53     1268.864   -15928.394    1025.4017 
   32850    280.69423   -70.236254    46796.702    -14635.83    1308.5929   -15944.423    1026.3393 
   32900    271.86623   -285.94016    46878.671   -14664.631    1267.4368   -15932.068    1028.9821 
   32950    276.52182    11.527045    47002.484   -14648.934    1289.1411   -15938.075    1032.0344 
   33000    270.71162    12.905613    47112.606   -14655.527     1262.054   -15917.581    1032.6599 
   33050    271.81802   -410.91713    47140.343   -14634.748     1267.212    -15901.96    1035.2915 
   33100    280.87084    109.66126    46975.387   -14570.387    1309.4162   -15879.803    1034.2282 
   33150    274.85638   -185.65672    46970.607   -14584.686    1281.3769   -15866.063    1034.3986 
   33200    282.39487   -211.25892    46850.277       -14609    1316.5212   -15925.521    1032.3314 
   33250    275.13832   -34.934494    46677.691   -14619.518    1282.6913    -15902.21    1030.8122 
   33300     277.3771    8.5813958    46969.202   -14574.473    1293.1284   -15867.601     1037.428 
   33350    282.60783    78.793009    46943.402   -14602.016     1317.514    -15919.53    1039.4575 
   33400      285.152    55.656491    46898.205   -14601.937    1329.3749   -15931.312    1040.3391 
   33450    279.18601   -191.58683    46747.094   -14609.187    1301.5615   -15910.749    1040.9038 
   33500    281.98621   -144.58994    46773.199   -14612.427     1314.616   -15927.043    1042.7756 
   33550    274.51823   -12.074475    46689.562    -14596.28    1279.8004    -15876.08     1042.477 
   33600    282.70359   -147.79954    46722.205   -14586.117    1317.9604   -15904.077    1043.0917 
   33650    289.76724   -114.37788    46732.182   -14551.283    1350.8911   -15902.174    1043.5581 
   33700    275.18178   -127.28006    46704.119   -14610.581    1282.8939   -15893.475    1045.3719 
   33750    281.33829    -165.9202    46622.879   -14623.157    1311.5954   -15934.752    1046.1949 
   33800    277.56386     409.9641    46752.355   -14600.013    1293.9991   -15894.012    1048.7402 
   33850    281.31192   -188.71511    46823.512   -14626.102    1311.4725   -15937.575    1050.9434 
   33900     284.4923    163.93898    46829.102   -14589.481    1326.2994   -15915.781    1053.8454 
   33950    275.86599   -243.87311    46710.847   -14635.121    1286.0836   -15921.204    1052.8822 
   34000    285.57106   -377.48244    46838.213   -14567.657    1331.3285   -15898.985    1057.4353 
   34050    281.75646   -7.2670727    46703.209    -14590.66    1313.5449   -15904.205    1059.4845 
   34100    287.78923    25.780052    46772.882   -14602.206    1341.6696   -15943.876      1065.78 
   34150    279.27355     -3.18791    46838.763   -14619.272    1301.9696   -15921.242    1067.7445 
   34200    274.60624   -18.334818    46856.906   -14601.132    1280.2107   -15881.342    1069.5009 
   34250    275.94458    13.113391     46928.22   -14683.433      1286.45   -15969.883    1071.5851 
   34300    277.61231    -38.68892    46959.476   -14647.875     1294.225     -15942.1     1075.072 
   34350    281.80452   -166.85446    47008.538   -14562.428     1313.769   -15876.197    1076.7989 
   34400    279.16585   -50.101559    46818.285   -14570.288    1301.4676   -15871.756    1076.4809 
   34450    282.61686   -252.05355    46826.558   -14566.816    1317.5561   -15884.372     1077.812 
   34500    280.35431   -15.912274     46743.77   -14591.029    1307.0081   -15898.037    1075.7581 
   34550    294.95247   -365.90017     46706.21   -14565.655    1375.0645    -15940.72    1075.3188 
   34600    278.64477    176.10835    46853.883   -14601.979    1299.0383   -15901.018    1079.5506 
   34650    273.50905   -0.3906902    46988.779   -14647.381    1275.0956   -15922.476    1083.6001 
   34700    275.52926   -429.94449    46926.841   -14655.992    1284.5138   -15940.506    1083.8092 
   34750    279.97415   -179.56463    46882.705    -14620.35    1305.2358   -15925.586    1085.0492 
   34800    277.38227    86.981287    46904.191   -14650.179    1293.1525   -15943.331     1086.918 
   34850    271.76185    41.954495    46720.434   -14638.496    1266.9502   -15905.446    1084.8834 
   34900    277.35992   -101.96093    46667.141   -14622.499    1293.0483   -15915.548    1086.7321 
   34950    273.09772     98.70149    46682.713   -14671.291     1273.178   -15944.469    1087.8946 
   35000     271.9601   -23.586495    46699.316    -14712.98    1267.8744   -15980.854    1091.1152 
   35050    272.29558    34.980576    46710.602   -14648.508    1269.4384   -15917.947    1093.1072 
   35100     275.8504   -249.11814    46646.035   -14616.684    1286.0109   -15902.695    1093.8801 
   35150    287.45471   -207.72965     46649.21   -14570.605    1340.1101   -15910.715     1094.733 
   35200    276.59828   -330.70307    46565.683    -14613.11    1289.4976   -15902.608    1097.5999 
   35250    282.86872   -147.74553    46526.694   -14589.449    1318.7303   -15908.179    1098.8935 
   35300    283.53718    150.66545    46520.291   -14596.836    1321.8466   -15918.683    1099.3421 
   35350    281.11497    235.99759    46532.334   -14567.719    1310.5543   -15878.274    1102.3548 
   35400    274.42896    27.262436     46564.41   -14604.963    1279.3842   -15884.347    1103.9481 
   35450     284.7223    419.29983    46758.399   -14535.246    1327.3716   -15862.618    1106.9922 
   35500    286.69883    246.51256    46842.145   -14524.251    1336.5862   -15860.837    1108.7352 
   35550    280.59606   -10.905697     46905.44   -14577.281    1308.1351   -15885.417    1112.0014 
   35600    282.12903   -336.43573    46930.595   -14552.736    1315.2818   -15868.018    1115.2226 
   35650    282.58285   -296.89899    46800.256   -14558.361    1317.3975   -15875.759    1114.2643 
   35700     284.0515    95.043017     46641.74   -14548.939    1324.2444   -15873.183    1111.7614 
   35750    292.29334     54.47575    46779.212   -14563.673    1362.6677    -15926.34     1115.154 
   35800    289.31805    115.64266    47070.127   -14544.696     1348.797   -15893.493    1122.4367 
   35850    284.32088   -292.76391    46979.755   -14572.221    1325.5002   -15897.721    1122.8873 
   35900    283.62742     -22.7728    46971.361   -14534.933    1322.2673   -15857.201    1125.7395 
   35950    293.20163   -63.833504    46880.766   -14488.438    1366.9022    -15855.34    1127.2868 
   36000    280.73753    36.556812    46670.399   -14510.275    1308.7947    -15819.07       1125.5 
   36050    286.98117    253.21059    46755.623   -14499.956    1337.9025   -15837.858    1128.1413 
   36100    290.42719   -37.348386    46873.554   -14553.994    1353.9678   -15907.962    1129.9939 
   36150    284.39353    17.067385    47042.153   -14578.202    1325.8389   -15904.041    1135.7457 
   36200    280.47938   -207.91879    46894.993    -14588.31    1307.5912   -15895.901      1134.59 
   36250    275.67962   -129.01663    46757.083    -14593.72    1285.2148   -15878.935    1133.8891 
   36300    284.14451    239.24859    46800.325    -14611.16     1324.678   -15935.838    1136.2266 
   36350     275.1491    165.94742    46806.978   -14629.213    1282.7415   -15911.954     1137.054 
   36400    283.40744   -194.49725    46939.426   -14553.437    1321.2418   -15874.679    1140.2318 
   36450    282.70684   -316.85773     46794.88    -14565.49    1317.9756   -15883.466    1137.4831 
   36500    282.57678   -313.68426    46781.235   -14590.448    1317.3692   -15907.817    1138.4272 
   36550    276.02631   -275.50276    46552.827   -14645.303     1286.831   -15932.134    1136.7597 
   36600    266.94862   -292.90401    46532.124   -14687.145     1244.511   -15931.656    1135.6721 
   36650    273.42453    279.90822    46725.845   -14654.052    1274.7016   -15928.754    1139.1177 
   36700    270.80564   -26.571396    46848.282    -14622.52    1262.4923   -15885.013    1142.3903 
   36750    283.40419   -64.678788     46841.67   -14596.239    1321.2266   -15917.465    1144.3203 
   36800    277.15181   -200.19408    46807.788   -14602.132    1292.0781    -15894.21    1145.8149 
   36850    274.44933   -48.550716    46734.394   -14648.127    1279.4792   -15927.606    1148.2716 
   36900     274.8145   -46.383331      46703.6   -14633.729    1281.1816    -15914.91    1149.1523 
   36950    276.60656    317.84589    46613.885   -14554.948    1289.5362   -15844.484     1149.464 
   37000     278.6902    133.14459    46713.088   -14546.899    1299.2501   -15846.149    1154.6589 
   37050    287.21131    205.84232    46873.068   -14584.891    1338.9754   -15923.866    1159.0973 
   37100     284.5418   -65.464687    46927.291   -14561.963    1326.5302   -15888.493    1161.5914 
   37150    274.42498   -339.05543    46783.986   -14602.414    1279.3657    -15881.78    1161.7459 
   37200    276.79755    60.921927    46770.867   -14616.431    1290.4265   -15906.857    1162.6092 
   37250    282.93356    94.887005    46803.467   -14644.372    1319.0326   -15963.404    1164.6976 
   37300     271.9823   -100.43538     46823.34   -14639.919    1267.9779   -15907.896    1168.0242 
   37350    279.67102    62.264901    46791.203   -14625.235    1303.8227   -15929.058    1172.1215 
   37400    285.22824   -265.91257    46788.346   -14634.792    1329.7303   -15964.523    1173.4177 
   37450    275.98577   -13.156382    46764.401    -14663.21    1286.6421   -15949.852    1173.8492 
   37500     275.0815   -223.94638    46808.851   -14650.565    1282.4263   -15932.991    1172.1223 
   37550    280.05879   -262.41548    46639.379   -14623.114    1305.6304   -15928.744    1171.1973 
   37600    280.65524    290.89579    46666.037   -14602.421    1308.4111   -15910.832    1171.3971 
   37650    281.01031   -272.29364    46730.089   -14584.149    1310.0664   -15894.215    1171.6949 
   37700    279.46789   -271.73394    46620.885   -14633.452    1302.8757   -15936.328    1170.3914 
   37750    265.51488   -128.92345     46531.73   -14690.975    1237.8269   -15928.802    1170.2526 
   37800     275.5102    30.320416    46605.792   -14694.128     1284.425   -15978.553    1171.5029 
   37850    269.66048   -234.61639    46662.135   -14686.401    1257.1536   -15943.555    1174.0628 
   37900    273.18349   -74.508658     46714.71   -14643.154    1273.5778   -15916.731    1176.6418 
   37950    270.26294    36.428091    46788.582   -14639.773    1259.9623   -15899.735    1181.4871 
   38000    281.89408   -506.41553    46653.615   -14602.903    1314.1865   -15917.089    1182.7674 
[...]
   91600    277.58509   -240.67127    46848.203   -14570.761     1294.098   -15864.859    2804.8705 
   91650    282.08066    139.59954    46882.338   -14587.554    1315.0563    -15902.61    2806.0237 
   91700    273.26815   -182.54813    46965.644   -14652.798    1273.9725   -15926.771    2809.2706 
   91750    277.47855    4.0032884     46732.86   -14643.922    1293.6013   -15937.524    2803.9429 
   91800    275.72021    133.01158    46640.545     -14608.4     1285.404   -15893.804    2801.5079 
   91850    286.37755    126.02504    46737.484   -14595.319    1335.0884   -15930.408    2807.1133 
   91900    279.58943   -8.0424509    46814.296   -14607.299    1303.4423   -15910.741     2808.901 
   91950    274.44874    62.599788    46925.859   -14610.456    1279.4764   -15889.932    2812.7143 
   92000    277.37466   -59.790668    46807.906   -14619.287     1293.117   -15912.404    2808.2379 
   92050    274.09238    176.44317    46841.724    -14617.35    1277.8151   -15895.165    2811.8282 
   92100    270.31549    7.4761425    46710.643    -14658.41    1260.2073   -15918.617    2809.0471 
   92150     272.1538   -80.787663    46622.974    -14664.68    1268.7774   -15933.457     2806.048 
   92200    281.99207    288.04114    46737.887   -14581.781    1314.6433   -15896.424    2813.9395 
   92250    288.23757    39.679409    46809.192   -14558.595    1343.7598   -15902.354    2817.4222 
   92300     286.9896   -281.72102    46814.145   -14527.983    1337.9418   -15865.925    2818.2773 
   92350    285.81498    91.731012    46702.706   -14510.234    1332.4657     -15842.7      2815.66 
   92400    282.25047    73.378827    46859.187   -14541.305     1315.848   -15857.153    2827.2968 
   92450    277.43382    84.809966    46824.886   -14563.279    1293.3928   -15856.671     2827.369 
   92500    279.45892    104.10734    46903.087   -14563.826    1302.8338    -15866.66    2834.3986 
   92550    268.04394    146.14442    46887.903   -14589.076    1249.6173   -15838.693    2834.6403 
   92600    279.98592    104.86483    46879.443   -14564.916    1305.2907   -15870.207    2834.5624 
   92650    273.51998    59.005049    46826.953    -14572.52    1275.1465   -15847.666    2833.7661 
   92700    284.04565   -165.73154    46802.144   -14563.298    1324.2171   -15887.515     2835.579 
   92750     275.0751     10.13066    46771.874   -14587.212    1282.3965   -15869.608      2834.74 
   92800     281.9992   -140.46014    46816.834   -14598.727    1314.6766   -15913.404    2837.3632 
   92850    284.09183   -228.26089    46744.659   -14591.297    1324.4324   -15915.729     2837.682 
   92900    278.99281    395.40184    46822.367   -14562.384    1300.6608   -15863.045    2845.5835 
   92950    277.79905   -58.346707    46757.801   -14598.135    1295.0956   -15893.231    2846.0816 
   93000    288.75428   -18.649682    46802.098     -14613.1    1346.1687   -15959.269    2849.9566 
   93050    282.72995   -92.522121    46987.619   -14556.901    1318.0833   -15874.985    2858.2125 
   93100    277.96194    341.80322    47103.579   -14556.417    1295.8549   -15852.271    2866.4088 
   93150    277.34075    10.398394    47104.537   -14584.609     1292.959   -15877.568    2866.3955 
   93200    279.42133    37.404865    47086.418   -14572.483    1302.6586   -15875.141    2865.9716 
   93250    284.05993   -41.044496    47040.948   -14576.055    1324.2837   -15900.339    2864.8615 
   93300    271.01448    306.19964    47009.171   -14585.917     1263.466   -15849.383    2867.2818 
   93350    277.19768    63.912886    46919.282   -14584.772    1292.2919   -15877.064    2862.4415 
   93400    271.76843    235.99631    46865.934   -14619.362    1266.9808   -15886.343    2861.7115 
   93450    276.46234   -34.259062    46838.127    -14641.11    1288.8638   -15929.974    2862.6241 
   93500     270.8751    337.24193    46724.069   -14628.604    1262.8162    -15891.42    2857.1782 
   93550    274.17401   -382.67734    46806.559   -14708.835    1278.1957    -15987.03    2863.7592 
   93600    265.15272    115.24012    46731.625   -14700.188    1236.1385   -15936.326    2856.9827 
   93650    274.46675    14.067635    46764.533    -14710.38    1279.5604   -15989.941    2862.9543 
   93700    270.93178   -145.22072    46687.333   -14661.817    1263.0804   -15924.897    2862.3601 
   93750    267.39372    29.291681    46712.978   -14656.158     1246.586   -15902.744     2863.786 
   93800    273.89592     -34.2722    46750.913   -14583.215    1276.8992   -15860.114    2868.5601 
   93850    270.09938    170.98112    46860.415   -14576.536    1259.1998   -15835.735    2874.2561 
   93900     274.6742     197.5028    46764.385   -14625.392    1280.5275   -15905.919    2868.6633 
   93950    273.93816   -198.11815     46739.88   -14661.852    1277.0961   -15938.948    2870.4941 
   94000    280.40859    483.38235    46821.476    -14640.58    1307.2612   -15947.841    2876.4541 
   94050    273.74608   -298.61842     46852.69   -14656.904    1276.2006   -15933.104    2876.7197 
   94100    280.28863   -7.3472501    46913.508   -14627.831    1306.7019   -15934.533    2882.9701 
   94150    275.89746    167.03305    46833.178   -14649.016    1286.2303   -15935.247    2880.8718 
   94200    277.18374    -209.4767    46796.825   -14601.751     1292.227   -15893.978    2881.2526 
   94250     282.7315   -44.589187     46680.82   -14635.591    1318.0906   -15953.682    2877.2778 
   94300    275.56607    260.84048    46829.864   -14567.006    1284.6854   -15851.691    2885.4142 
   94350    281.80808    50.576995    46900.098   -14547.687    1313.7856   -15861.473    2888.9189 
   94400    285.49702     67.98327    46783.512   -14566.775    1330.9834   -15897.758    2885.4361 
   94450    285.78929      162.368    46893.381    -14551.08    1332.3459   -15883.426    2887.9831 
   94500     282.7768    352.22441    46899.091   -14522.603    1318.3018   -15840.905    2892.0121 
   94550    272.53388   -143.99456    46854.421   -14554.962    1270.5494   -15825.511    2892.0232 
   94600    280.10168    83.922166    46762.655   -14588.256    1305.8304   -15894.086    2889.3394 
   94650    279.65716    199.92725    46716.124    -14578.04     1303.758   -15881.798    2889.3491 
   94700    276.05408   -253.46679    46652.765   -14617.343    1286.9605   -15904.303     2888.039 
   94750    280.34821    652.38013    46637.061   -14577.114    1306.9797   -15884.094    2889.8878 
   94800    281.86189   -24.016295     46733.15   -14565.983    1314.0365   -15880.019    2889.8673 
   94850    275.52521    14.503584    46691.133   -14587.532    1284.4949   -15872.027    2889.0291 
   94900    281.73094   -509.56493    46762.103   -14540.274     1313.426     -15853.7    2893.6541 
   94950    276.73065   -203.01925    46622.689   -14555.292    1290.1147   -15845.407    2891.5634 
   95000    281.29282    223.25742    46713.361   -14531.604    1311.3835   -15842.988    2897.9178 
   95050    288.11826    96.561878    46778.755    -14473.12    1343.2036   -15816.323    2905.1699 
   95100    280.52439   -74.226674    46764.343   -14526.472    1307.8011   -15834.273    2904.1034 
   95150    289.07922    -11.07208    46719.326   -14521.601    1347.6835   -15869.284      2905.05 
   95200     288.6769   -203.77561    46813.649   -14544.339    1345.8079   -15890.147    2909.6864 
   95250    282.85254    63.250938    46788.677   -14560.012    1318.6548   -15878.667    2913.7079 
   95300    295.70709    261.06796    46750.681   -14464.713    1378.5826   -15843.296    2910.9003 
   95350    286.70698   -17.227838    46707.862   -14569.005    1336.6242   -15905.629    2913.8902 
   95400    282.85561    320.05049    46799.388   -14550.591    1318.6692   -15869.261    2918.5675 
   95450    286.61646   -518.10893    46958.558   -14543.171    1336.2022   -15879.373    2926.9793 
   95500    279.59677   -315.84146     46660.13   -14559.507    1303.4765   -15862.984    2911.5855 
   95550    283.95922    32.954839    46598.469   -14555.054    1323.8142   -15878.868    2910.6941 
   95600    297.09813   -152.93606    46767.196   -14552.279    1385.0676   -15937.347    2919.5992 
   95650    279.30704   -20.678191    46924.914   -14577.468    1302.1258   -15879.594    2928.2214 
   95700     276.2409    151.40313     46914.63   -14614.372    1287.8315   -15902.203    2930.6182 
   95750    278.15964   -185.42914    46866.252   -14646.973    1296.7766    -15943.75    2929.7746 
   95800    273.87559   -164.10507    46794.958   -14658.997    1276.8044   -15935.801    2924.5835 
   95850    280.59542   -112.65845    46704.167   -14612.149    1308.1322   -15920.281    2922.0886 
   95900    283.27167   -77.870899    46797.126   -14594.781    1320.6088    -15915.39    2928.4881 
   95950    280.25305   -24.715876    46878.415   -14608.841     1306.536   -15915.377    2933.6663 
   96000    275.62609   -7.2145082    46728.998   -14665.193    1284.9652   -15950.158    2927.4834 
   96050    267.51919    203.54814    46783.168   -14670.162     1247.171   -15917.333    2931.7588 
   96100     286.3196   -68.504007    46661.884   -14575.675    1334.8182   -15910.493    2929.2921 
   96150    288.29625    292.07072    46567.124   -14619.186    1344.0334   -15963.219    2924.7352 
   96200    273.87433    324.71179    46650.796    -14624.16    1276.7985   -15900.959    2931.2425 
   96250    270.69819    56.641467    46838.997    -14624.89    1261.9914   -15886.881     2940.921 
   96300    274.57456   -260.95381    46893.063   -14567.863     1280.063   -15847.926    2944.1508 
   96350    288.52353   -188.69944    46813.205   -14549.794    1345.0929   -15894.887    2943.3011 
   96400    277.09839   -390.05449     46755.83   -14549.146    1291.8291   -15840.975    2941.3641 
   96450    280.09271    465.60592     46660.12   -14540.682    1305.7886    -15846.47    2935.5356 
   96500    275.46769    160.21268    46731.079     -14592.5    1284.2268   -15876.726    2943.5035 
   96550    281.11127    564.38041    46848.564   -14595.456    1310.5371   -15905.993    2948.7137 
   96600    274.90946   -127.02458    46873.002   -14615.916    1281.6243    -15897.54     2950.772 
   96650    271.22065    691.00145    46966.448   -14619.471    1264.4271   -15883.898    2953.4682 
   96700    267.79426    142.90166    46855.495   -14701.121    1248.4533   -15949.575    2950.0207 
   96750     269.6874   -217.19398    46926.935   -14718.661    1257.2791    -15975.94     2953.289 
   96800     269.8051   -147.14563    46811.883   -14699.218    1257.8278   -15957.045    2949.0239 
   96850    280.33344   -272.67054    46758.322   -14646.975    1306.9108   -15953.886     2947.383 
   96900    271.52274   -99.455645     46572.55   -14608.692    1265.8355   -15874.528    2944.8307 
   96950    281.69845    190.48548    46551.691   -14610.289    1313.2745   -15923.563    2946.0177 
   97000    284.51545    454.71004    46733.636   -14603.065    1326.4073   -15929.472     2954.721 
   97050    288.39228     74.04608    46775.637   -14578.874    1344.4811   -15923.355    2958.1459 
   97100    270.46837   -241.89745    46858.082   -14644.245      1260.92   -15905.165    2962.7686 
   97150    282.02947   -369.49347    46777.783   -14618.685    1314.8177   -15933.503    2960.7221 
   97200    275.06853    -340.4851    46766.114   -14615.113    1282.3659   -15897.479     2962.109 
   97250    276.34514   -134.68772    46712.044   -14635.446    1288.3174   -15923.763    2959.9533 
   97300    272.06886    -68.88873    46871.153    -14632.94    1268.3815   -15901.321    2970.8034 
   97350    270.32865   -15.717665    46899.756   -14661.883    1260.2686   -15922.151    2972.3943 
   97400    279.53828    22.846104    46760.221   -14651.976    1303.2038    -15955.18    2967.1815 
   97450    273.48078    209.41906    46743.544   -14644.834    1274.9638   -15919.798     2965.914 
   97500    280.29903    279.01063    46842.942   -14577.324    1306.7504   -15884.075    2971.0283 
   97550    283.80563   -65.128024    46908.403   -14566.124    1323.0981   -15889.222    2977.4196 
   97600    285.35759   -208.25944    46781.345   -14594.179    1330.3334   -15924.512     2971.763 
   97650    276.63714    172.82431    46725.531    -14636.11    1289.6787   -15925.789    2972.7733 
   97700    292.46362   -115.64156     46737.27   -14537.576    1363.4616   -15901.038    2976.5946 
   97750    287.12174    -123.0196    46736.089    -14562.53    1338.5578   -15901.088    2977.1865 
   97800    277.83247    192.44093    46734.403   -14554.727    1295.2514   -15849.978    2978.7792 
   97850    290.04179   -99.475331    46741.447   -14552.791     1352.171   -15904.962    2979.8677 
   97900     286.8437    444.64079    46704.057   -14524.668    1337.2616   -15861.929    2979.1771 
   97950    282.23344    47.462402    46785.463   -14537.017    1315.7686   -15852.786    2985.9016 
   98000    279.78091   -133.99388      46785.7   -14585.899     1304.335   -15890.234    2986.5591 
   98050    268.41997    110.55605    46776.511   -14589.109    1251.3704   -15840.479    2988.5869 
   98100    276.36529    70.378408    46765.671   -14613.169    1288.4114   -15901.581    2987.6321 
   98150     275.9477    146.80235    46847.936   -14626.084    1286.4646   -15912.549    2991.8394 
   98200    277.70289    -73.13947    46968.164   -14583.695    1294.6472   -15878.342    2998.7776 
   98250    286.94727    22.233101    46906.847   -14544.154    1337.7444   -15881.898    2998.6614 
   98300    273.02762   -117.36454    46810.412       -14624    1272.8512   -15896.851    2998.3226 
   98350    279.41334    316.50854    46867.127   -14574.922    1302.6214   -15877.543    3002.2219 
   98400    273.16987     87.28048    46869.254   -14601.859    1273.5143   -15875.374    3002.5902 
   98450    277.25846    185.21133    46783.922   -14639.441    1292.5753   -15932.016    3001.6344 
   98500    279.35632    126.59945    46820.503   -14622.273    1302.3555   -15924.629    3007.2228 
   98550    276.94326   -402.18142    46677.667    -14650.62    1291.1059   -15941.726    2998.4644 
   98600    269.71815    94.978506    46608.576   -14657.206    1257.4225   -15914.628    2997.4373 
   98650    278.32613   -84.014514    46609.165   -14673.319    1297.5528   -15970.872    2998.1431 
   98700    271.98268   -66.792631    46748.801   -14691.673    1267.9797   -15959.653    3002.9924 
   98750    269.10447    32.127822     46782.61   -14678.128    1254.5615   -15932.689    3007.4317 
   98800    275.92248    187.52138     46834.74   -14653.913     1286.347    -15940.26    3010.9918 
   98850    268.59533   -157.86587    46884.462   -14701.364    1252.1879   -15953.552    3015.4291 
   98900    272.35001   -42.016189    46708.934   -14669.518    1269.6922    -15939.21    3009.7835 
   98950    275.62041    211.85066    46763.835   -14664.055    1284.9388   -15948.994    3011.6126 
   99000     277.6593    -20.41077    46905.453   -14665.604     1294.444   -15960.048    3020.1529 
   99050    274.22021   -97.944878    46771.394   -14620.398     1278.411   -15898.809    3014.6727 
   99100    275.96986    68.718738    46660.744   -14610.994    1286.5679   -15897.562    3010.9106 
   99150    277.56717    268.27836    46751.631   -14557.827    1294.0145   -15851.841    3017.3574 
   99200    276.04371   -280.92607    46725.911    -14587.42    1286.9122   -15874.332    3019.5127 
   99250    277.97793   -114.99595     46540.79   -14579.142    1295.9295   -15875.072    3014.2872 
   99300    280.96175     -226.975    46613.791   -14570.996      1309.84   -15880.836     3019.215 
   99350    279.05765    298.83563    46577.383   -14576.609    1300.9631   -15877.572    3020.3681 
   99400      281.666    190.62071     46589.38   -14548.867    1313.1232    -15861.99    3023.3798 
   99450    295.76736   -73.774637    46762.221   -14465.938    1378.8635   -15844.802    3035.2742 
   99500    292.96582    299.21221     46752.88   -14471.691    1365.8028   -15837.494    3036.4042 
   99550    288.92569   -93.720525    46715.282    -14517.94    1346.9678   -15864.908    3038.7565 
   99600    288.25181    2.8726783    46886.119   -14504.005    1343.8262   -15847.832    3044.5832 
   99650    279.35805    62.187434    46861.936   -14504.728    1302.3636   -15807.091    3044.0268 
   99700    278.06598    239.81206    46973.355   -14511.771    1296.3399   -15808.111     3046.588 
   99750      286.951    90.614745    46884.449   -14530.098    1337.7618   -15867.859    3047.1457 
   99800     274.7288   -186.38439    46930.578   -14551.888    1280.7821    -15832.67    3051.1475 
   99850    277.12325   -73.427727    46961.695   -14556.305     1291.945    -15848.25    3051.4922 
   99900    277.07364   -104.41361    46750.258   -14582.554    1291.7137   -15874.267    3046.7554 
   99950    280.17377    79.947164    46624.442   -14585.217    1306.1664   -15891.383    3041.6249 
  100000    271.32341    258.45672    46775.776   -14596.049    1264.9062   -15860.955    3049.2108 
  100050     283.2765   -87.220098    47003.994   -14545.324    1320.6313   -15865.956    3059.9145 
  100100    290.42963   -527.37478    46892.034   -14499.455    1353.9791   -15853.434    3063.6251 
  100150     283.5296    -423.7838     46818.35   -14497.369    1321.8113    -15819.18    3062.8517 
  100200    287.97889    230.82322      46929.8   -14523.554    1342.5538   -15866.108    3070.2883 
  100250    282.80367   -188.70233    46686.843   -14547.355     1318.427   -15865.782    3063.0681 
  100300    278.86906   -73.831381    46624.663   -14513.073    1300.0839   -15813.157    3059.3093 
  100350    287.41474    136.53592    46510.476    -14572.89    1339.9238   -15912.814    3054.3346 
  100400    282.58401    36.879444     46649.41   -14565.447     1317.403    -15882.85    3060.8636 
  100450    281.27152    314.83338    46675.094   -14538.289    1311.2841   -15849.573    3063.9857 
  100500    284.52107      232.657    46880.266   -14469.659    1326.4335   -15796.093     3073.576 
  100550    279.90718     57.77223    46810.694   -14518.096    1304.9236    -15823.02    3071.3799 
  100600    280.81671   -361.79502    46700.559   -14561.913    1309.1639   -15871.077    3063.8718 
  100650     278.4081    84.430874    46686.125   -14595.141    1297.9349   -15893.076    3063.6457 
  100658    273.84059    100.55347    46716.799   -14610.059    1276.6412     -15886.7    3064.3021 
Loop time of 88.7783 on 10 procs for 100000 steps with 1565 atoms

Performance: 973.211 ns/day, 0.025 hours/ns, 1126.402 timesteps/s
99.1% CPU use with 10 MPI tasks x no OpenMP threads

MPI task timing breakdown:
Section |  min time  |  avg time  |  max time  |%varavg| %total
---------------------------------------------------------------
Pair    | 62.552     | 70.622     | 74.251     |  41.6 | 79.55
Neigh   | 3.3799     | 3.9673     | 4.128      |  11.4 |  4.47
Comm    | 6.6103     | 10.397     | 19.371     | 118.8 | 11.71
Output  | 0.081668   | 0.088603   | 0.14265    |   6.1 |  0.10
Modify  | 2.8329     | 3.1868     | 3.4044     |  11.4 |  3.59
Other   |            | 0.5163     |            |       |  0.58

Nlocal:    156.5 ave 164 max 152 min
Histogram: 1 2 2 2 0 1 1 0 0 1
Nghost:    764.1 ave 779 max 751 min
Histogram: 1 2 1 1 0 1 0 3 0 1
Neighs:    0 ave 0 max 0 min
Histogram: 10 0 0 0 0 0 0 0 0 0
FullNghs:  5270.4 ave 5565 max 5088 min
Histogram: 1 2 1 3 1 0 0 1 0 1

Total # of neighbors = 52704
Ave neighs/atom = 33.6767
Neighbor list builds = 13001
Dangerous builds = 0

undump              1
reset_timestep      0
#unfix               2
#unfix               3
#unfix               4


################################################
#######           Insert Ice           #########
################################################

log                 log.${NAME}.eq_all
log                 log.setup_atoms_280K_00.eq_all
