
# Define the lattice
#
variable	    lattice_constant equal 6.2045
lattice		    diamond ${lattice_constant} orient x 0 1 0 orient y -1 0 0 orient z 0 0 1
lattice		    diamond 6.2045 orient x 0 1 0 orient y -1 0 0 orient z 0 0 1
Lattice spacing in x,y,z = 6.2045 6.2045 6.2045

# Define region
# multiples of lattice spacing
#
region 		    simbox block 0 4 0 5 0 5

# Create Atoms
#
create_box          1 simbox
Created orthogonal box = (0 0 0) to (24.818 31.0225 31.0225)
  1 by 2 by 5 MPI processor grid
create_atoms        1 box
Created 800 atoms
  Time spent = 0.000400305 secs
mass                1 18.015

# Define potential
#
pair_style          sw
pair_coeff          * * mW_real.sw mW
Reading potential file mW_real.sw with DATE: 2019-02-27

# Add velocity/set timestep
#
velocity            all create ${TEMP} 120598 rot yes dist gaussian
velocity            all create 270 120598 rot yes dist gaussian
timestep            10.0

# Define output
#
compute	            1 all msd
thermo              50
thermo_style        custom step temp press vol etotal ke pe c_1[4]

# Neighbor lists
#
neigh_modify        delay 0 every 1 check yes

# Set fixes
#
fix                 1 all momentum 10 linear 1 1 1 rescale
fix                 2 all nve
fix                 3 all temp/csvr ${TEMP} ${TEMP} 500.0 928347
fix                 3 all temp/csvr 270 ${TEMP} 500.0 928347
fix                 3 all temp/csvr 270 270 500.0 928347
fix                 4 all press/berendsen iso ${PRES} ${PRES} 1000.0 modulus 20000
fix                 4 all press/berendsen iso 0 ${PRES} 1000.0 modulus 20000
fix                 4 all press/berendsen iso 0 0 1000.0 modulus 20000

# Run 1 ns equilibration
#
dump		    1 all atom 1000 eq.${NAME}.dump
dump		    1 all atom 1000 eq.ice_box_270K_01.dump
run	            100000
Neighbor list info ...
  update every 1 steps, delay 0 steps, check yes
  max neighbors/atom: 2000, page size: 100000
  master list distance cutoff = 6.3065
  ghost atom cutoff = 6.3065
  binsize = 3.15325, bins = 8 10 10
  1 neighbor lists, perpetual/occasional/extra = 1 0 0
  (1) pair sw, perpetual
      attributes: full, newton on
      pair build: full/bin/atomonly
      stencil: full/bin/3d
      bin: standard
Per MPI rank memory allocation (min/avg/max) = 4.469 | 4.469 | 4.469 Mbytes
Step Temp Press Volume TotEng KinEng PotEng c_1[4] 
       0          270    1125.2723    23884.732   -9259.3265    643.05015   -9902.3767            0 
      50    203.31038    214.10653    24183.458   -8970.3682    484.21767   -9454.5859  0.098984398 
     100    218.95719    29.711243    24289.626   -8835.3841    521.48316   -9356.8673   0.13357325 
     150    225.95261   -9.0733069     24336.08   -8751.9084    538.14394   -9290.0523   0.12889315 
     200    245.33121    85.593152    24373.989   -8707.8511    584.29729   -9292.1484    0.1474075 
     250    267.06609     117.3892    24408.502   -8630.7481    636.06256   -9266.8106   0.13465321 
     300    253.48126   -114.38516    24421.997   -8585.3228    603.70801   -9189.0308    0.1805932 
     350    250.41457   -6.9268146    24428.607   -8582.1327    596.40418   -9178.5368   0.18435121 
     400    258.87739   -21.705787    24440.838   -8575.9741     616.5598   -9192.5339   0.16782918 
     450    268.27416    100.61761    24436.548   -8549.9537    638.93979   -9188.8934   0.15777895 
     500    262.27152    -158.0089    24446.521   -8566.9414     624.6435   -9191.5849   0.17586023 
     550    276.10045    143.08568    24454.117   -8514.2406    657.57939     -9171.82    0.1483879 
     600    280.45357   -31.321581    24463.338   -8486.9447    667.94708   -9154.8918   0.18208884 
     650    280.24376   -48.098692    24468.494    -8480.503    667.44739   -9147.9503   0.17864536 
     700    288.39795   -27.090781    24449.247   -8498.9107    686.86794   -9185.7787   0.15406548 
     750    281.89329    43.711408    24460.359   -8505.4809    671.37602   -9176.8569   0.18434254 
     800    273.57391   -47.155676    24469.766   -8481.8066    651.56203   -9133.3686   0.16901172 
     850    261.97295   -22.842184    24468.088   -8506.7316     623.9324    -9130.664   0.19093832 
     900     270.3373    34.197298    24460.389   -8505.7345    643.85349    -9149.588    0.1879976 
     950    266.44505   -60.967777    24441.034   -8529.5263    634.58345   -9164.1098   0.18433554 
    1000    263.70321   -128.68522    24442.686   -8554.1308    628.05328    -9182.184   0.17170262 
    1050    258.00478   -98.487432    24443.948   -8554.0949    614.48152   -9168.5765   0.17934468 
    1100     265.8479    26.441554    24452.336   -8519.7729    633.16123   -9152.9341   0.16811565 
    1150     258.9689     -25.4462    24456.617   -8550.9654    616.77774   -9167.7431   0.17570607 
    1200    269.26476    76.883737    24462.278   -8515.4773    641.29906   -9156.7763   0.15716259 
    1250    272.70241    53.794969    24467.708    -8518.957    649.48638   -9168.4434   0.15671563 
    1300    279.87828   -11.625784    24482.282   -8485.7276    666.57692   -9152.3045   0.17270467 
    1350    274.86562    8.7185422     24477.65   -8532.3536    654.63845   -9186.9921   0.14887065 
    1400    268.76986   -21.185984    24471.857   -8511.8638    640.12036   -9151.9841   0.18878154 
    1450    267.23023    21.120111    24453.571   -8558.6396    636.45348   -9195.0931   0.16250301 
    1500    265.56824   -36.324807    24447.329   -8537.4774    632.49517   -9169.9726   0.17207358 
    1550    270.19537    20.648803    24458.139   -8529.9979    643.51546   -9173.5134   0.17805016 
    1600    277.38324   -60.659309    24474.762   -8518.3254    660.63457   -9178.9599   0.17813573 
    1650    264.34237    6.3159036    24469.297   -8507.7135    629.57557   -9137.2891   0.18192317 
    1700    267.83807    -37.92268    24458.449    -8532.081    637.90116   -9169.9822   0.18321631 
    1750     270.9151   -7.1054791    24456.157   -8518.4681    645.22962   -9163.6977   0.16178223 
    1800    280.29555    8.8681277    24461.364   -8499.3363    667.57072   -9166.9071   0.17896842 
    1850    277.90206   -7.5616926    24461.643   -8514.3877    661.87023   -9176.2579   0.16459849 
    1900    277.45156     18.10731    24470.285   -8479.9934    660.79729   -9140.7906   0.17841982 
    1950    274.86176   -84.665249    24473.974    -8473.981    654.62925   -9128.6102    0.1948827 
    2000    289.07474   -2.8457377    24470.713   -8476.1725    688.47983   -9164.6523   0.16699558 
    2050    267.77571   -37.086509    24457.785    -8517.712    637.75262   -9155.4647   0.18641874 
    2100    259.19823   -90.795743     24446.07   -8549.1865    617.32393   -9166.5104   0.18128992 
    2150     277.0229   -83.391267    24450.654   -8520.8381    659.77636   -9180.6145   0.17717475 
    2200    273.88538    9.6833805    24453.202   -8521.2155    652.30383   -9173.5193   0.17447194 
    2250    272.04252    27.499272     24460.78   -8502.9159    647.91474   -9150.8306   0.18310169 
    2300    287.60212     154.3096    24478.863   -8493.8127    684.97255   -9178.7853   0.15447567 
    2350    278.72235    31.910467    24464.362   -8486.9612    663.82388   -9150.7851   0.18298085 
    2400    280.16729    2.3262038    24467.922   -8505.0636    667.26524   -9172.3288   0.17197074 
    2450    283.81624    29.403359    24449.849   -8522.0103    675.95585   -9197.9661   0.16542509 
    2500    279.57803    81.269358    24456.731   -8527.9644    665.86184   -9193.8263   0.15642321 
    2550    279.28997   -44.302353    24454.542    -8510.337    665.17577   -9175.5128    0.1657133 
    2600    274.91281     -38.5088    24460.379   -8508.3636    654.75082   -9163.1144   0.19287136 
    2650    278.70948    29.132294    24450.814    -8511.142    663.79323   -9174.9352   0.17525558 
    2700    267.22673   -86.729037    24448.726   -8540.4217    636.44514   -9176.8668   0.17600789 
    2750     279.0233    25.630514     24453.61   -8508.3853    664.54064   -9172.9259   0.18324718 
    2800    275.07502   -26.147493     24458.49   -8489.6403    655.13715   -9144.7774   0.17058661 
    2850    275.52808    69.565868    24456.908   -8483.8529     656.2162   -9140.0691   0.17065937 
    2900    271.23792   -36.454304    24470.177   -8500.6513    645.99845   -9146.6497   0.19465334 
    2950     275.0625    31.848024    24465.472   -8521.4121    655.10734   -9176.5194   0.15872358 
    3000    267.56012    30.923268    24444.139   -8514.5636    637.23917   -9151.8027   0.18001214 
    3050    275.63549   -65.976306    24454.152   -8494.4796      656.472   -9150.9516   0.19295003 
    3100    274.57276    68.338652    24447.727   -8502.4853    653.94094   -9156.4262   0.17184513 
    3150    266.86574   -37.253767    24443.283   -8515.6716    635.58538    -9151.257   0.18668654 
    3200    270.62679   -31.699758    24432.126   -8563.2222    644.54295   -9207.7652   0.17181897 
    3250    274.46836   -37.509943    24427.341   -8554.4296     653.6923   -9208.1219   0.17040618 
    3300    266.78787    12.224773    24419.617   -8578.3764    635.39994   -9213.7764   0.16452412 
    3350    274.06984    3.1159928    24421.837   -8543.7016    652.74317   -9196.4448   0.16453913 
    3400    272.31851   -89.040389    24432.466   -8523.2062    648.57207   -9171.7782   0.19121861 
    3450    268.27483    -16.86482    24439.658   -8538.4132    638.94138   -9177.3546   0.18526912 
    3500    264.41625   -13.289452    24407.234     -8558.04    629.75153   -9187.7915   0.16096689 
    3550    268.64874    23.579323    24416.073    -8551.681    639.83191   -9191.5129   0.18876059 
    3600    276.48653   -18.042468    24427.585   -8522.3914     658.4989   -9180.8903   0.17786439 
    3650    279.65424    42.398566    24458.095     -8463.39    666.04334   -9129.4334   0.19353124 
    3700    274.93283    17.090106    24440.493   -8521.5995    654.79852    -9176.398    0.1811737 
    3750    270.63291   -54.492379    24453.755   -8487.5308    644.55754   -9132.0884   0.19334493 
    3800    265.51061    103.22003    24466.238   -8485.0236    632.35791   -9117.3815   0.18696425 
    3850    277.72964    30.364732    24474.472   -8479.7005    661.45958   -9141.1601   0.17428887 
    3900    281.93938   0.57219283    24481.909   -8490.9774    671.48578   -9162.4631   0.17324078 
    3950    264.99671   -42.608342     24468.25   -8523.3851    631.13398   -9154.5191   0.18358211 
    4000    264.51795    99.126607     24457.27   -8539.3559    629.99374   -9169.3496   0.15717527 
    4050    270.58179    32.256059     24442.12   -8543.7368    644.43579   -9188.1726   0.16884236 
    4100    269.55365   -26.844405    24454.004   -8538.8997    641.98709   -9180.8868   0.18844553 
    4150    285.43354    67.548626    24470.398   -8522.1383    679.80772    -9201.946   0.14821852 
    4200    276.58796    53.405751    24476.697    -8493.405    658.74049   -9152.1455   0.18800234 
    4250    260.99293   -45.618573    24458.645   -8512.1317    621.59831     -9133.73    0.1873532 
    4300    256.31767   -28.327199    24446.323   -8562.2188     610.4634   -9172.6822   0.17158631 
    4350    271.75979    43.073058    24440.856   -8551.2167    647.24139   -9198.4581   0.16787396 
    4400    282.82958   -9.9081577    24449.735   -8505.5691    673.60594   -9179.1751   0.18383217 
    4450     264.2896    -75.72922    24441.345   -8539.0577    629.44988   -9168.5076   0.17288463 
    4500    271.34175    55.478497    24438.175   -8530.0834    646.24576   -9176.3292   0.16674233 
    4550    277.99584   -1.0216707    24450.739   -8525.9562    662.09359   -9188.0498   0.16555308 
    4600    262.15389   -82.092386    24432.842   -8575.0469    624.36332   -9199.4102   0.16926498 
    4650    284.92768    9.3392042    24461.248   -8511.5637    678.60292   -9190.1666   0.16315263 
    4700    278.09962    67.205717    24448.554   -8511.6605    662.34075   -9174.0013   0.16424106 
    4750    266.04039   -37.571231    24453.833   -8487.6388    633.61969   -9121.2585   0.20112226 
    4800    271.99205   -36.990917    24454.805   -8496.9346    647.79455   -9144.7291   0.16790137 
    4850    260.77545    -19.14729    24462.935   -8492.0047    621.08035    -9113.085   0.18737973 
    4900    282.81201    52.165476    24462.636   -8483.1227     673.5641   -9156.6868   0.18552919 
    4950    273.13224   -8.1217524    24474.577   -8484.7984    650.51011   -9135.3085   0.17235422 
    5000    271.06159    19.850063    24451.447    -8529.379     645.5785   -9174.9575   0.17771077 
    5050    270.99809    -54.51459     24445.15   -8512.8159    645.42726   -9158.2432   0.17442095 
    5100    284.28819   -6.2308429    24465.574   -8496.1386    677.07986   -9173.2184   0.16334131 
    5150    274.10342    69.520547    24468.485   -8490.6386    652.82313   -9143.4617    0.1741894 
    5200    273.92696    47.475755     24473.22   -8515.1138    652.40286   -9167.5166   0.16238578 
    5250     256.6098   -10.020409     24458.84   -8574.7834    611.15916   -9185.9425   0.15534434 
    5300    271.84763    46.218693    24447.314   -8552.0479    647.45059   -9199.4985   0.17055536 
    5350    263.55902   -4.0374032    24440.513   -8551.5834    627.70989   -9179.2933   0.15681351 
    5400    274.77974    49.847192    24436.586   -8552.1886    654.43389   -9206.6225   0.16630053 
    5450    260.95481   -16.479553    24447.934   -8549.0068    621.50752   -9170.5143   0.16466776 
    5500     264.9082    12.585962    24451.385   -8543.3478    630.92317   -9174.2709   0.16954895 
    5550    261.84132     31.13889    24445.547   -8537.3511    623.61888     -9160.97   0.17197355 
    5600    265.54842   -32.888761    24441.824   -8568.0245    632.44797   -9200.4725   0.16143153 
    5650    275.46322     66.65431    24453.266    -8535.511    656.06172   -9191.5727   0.15207389 
    5700    266.35355   -5.4622469    24456.226   -8535.1353    634.36551   -9169.5008   0.16463012 
    5750    262.60214    23.432561    24468.387    -8542.659     625.4309   -9168.0899   0.16476755 
    5800    270.79612    66.204028    24459.217   -8531.7419    644.94623   -9176.6881   0.16009029 
    5850    268.91865   -44.941531     24467.74   -8510.4548    640.47473   -9150.9295   0.17201016 
    5900    254.12418   -25.089693    24450.792   -8579.3415    605.23924   -9184.5807   0.14752436 
    5950     261.1453    73.585663    24447.193   -8561.4078    621.96121    -9183.369   0.17016034 
    6000    257.06024    31.763949    24445.571   -8592.1498    612.23196   -9204.3818   0.14560132 
    6050    261.99532   -31.637663    24451.565   -8555.0314    623.98568   -9179.0171   0.16903685 
    6100    265.60934    7.7564912     24450.85   -8548.4214    632.59307   -9181.0144   0.17177287 
    6150    259.70985   -59.460016    24455.532   -8571.0037    618.54243   -9189.5462   0.15588823 
    6200    257.24344   -35.731907    24458.089   -8554.9175    612.66828   -9167.5858     0.171039 
    6250     273.3626    35.963336    24466.401   -8534.3816    651.05875   -9185.4404   0.16835958 
    6300    274.65345   -79.117264     24472.23   -8511.5883    654.13311   -9165.7214   0.16692093 
    6350    278.81451    82.783067    24489.283   -8476.8682    664.04339   -9140.9116   0.17002756 
    6400    280.72076   -10.748545    24492.945   -8521.4284    668.58344   -9190.0119   0.15086985 
    6450    268.55061    35.025334    24470.539   -8555.2451     639.5982   -9194.8433   0.14653097 
    6500    251.82273   -25.427391    24450.047   -8559.1518    599.75794   -9158.9098   0.17091152 
    6550    264.33124    64.004188    24448.313   -8559.0077    629.54906   -9188.5568   0.14385288 
    6600    270.97316    110.55636    24458.781   -8568.5158     645.3679   -9213.8837   0.15372847 
    6650    258.72281   -98.274459    24467.081   -8564.0711    616.19164   -9180.2628   0.15805069 
    6700    269.29068    6.9305168    24467.757   -8554.8254    641.36079   -9196.1862   0.15599586 
    6750    259.31292   -57.941971    24461.186   -8576.0384    617.59707   -9193.6355   0.15840802 
    6800    252.68916   -63.510647    24458.725   -8569.5193     601.8215   -9171.3408   0.16565878 
    6850     263.3475   -14.877821    24465.459   -8549.9198    627.20611   -9177.1259   0.15100429 
    6900    268.99782  -0.16543062    24474.204   -8533.1244    640.66329   -9173.7877   0.17060905 
    6950    275.05138    73.194887    24490.527     -8505.59    655.08085   -9160.6709   0.15681696 
    7000    273.47517   -49.386318    24488.183   -8531.3004    651.32685   -9182.6272   0.14741736 
    7050    276.71903   -15.669949    24493.298   -8499.8948    659.05265   -9158.9475   0.16589311 
    7100     262.9875   -103.42186    24482.668   -8534.6455     626.3487   -9160.9942   0.15702286 
    7150      272.741    12.326115    24480.892    -8513.318    649.57829   -9162.8963   0.16873463 
    7200    264.25986   -39.482647    24481.334   -8556.7653    629.37904   -9186.1443   0.15336265 
    7250    257.66928   -41.945903     24460.09   -8581.8256    613.68248   -9195.5081    0.1562025 
    7300    260.85032   -33.068638    24447.818   -8598.1631    621.25867   -9219.4218   0.15889282 
    7350    264.57485    124.66544    24451.751   -8568.3531    630.12926   -9198.4823   0.15356409 
    7400    259.94434    37.858717    24468.427   -8561.2405    619.10091   -9180.3414    0.1554333 
    7450    266.96292    37.686662    24472.514   -8543.2924    635.81685   -9179.1093   0.17296012 
    7500    269.24797   -17.527417    24471.999   -8533.7302    641.25907   -9174.9893   0.15056623 
    7550    268.23062   -4.9226998    24469.677   -8539.3669    638.83609    -9178.203   0.16146254 
    7600    271.94874   -9.4093149    24469.528   -8543.9954     647.6914   -9191.6868   0.17455789 
    7650    276.24822    -59.66274    24488.547   -8526.4964    657.93134   -9184.4277   0.16098362 
    7700    265.12393   -121.91894    24484.572   -8513.2146    631.43697   -9144.6516   0.18678173 
    7750    259.62854   -7.0274774    24465.709   -8553.3662    618.34878    -9171.715   0.16302798 
    7800    275.28371     27.40679    24454.101   -8550.0506    655.63418   -9205.6847   0.16291634 
    7850    262.48162   -51.012016    24447.853   -8585.6816    625.14387   -9210.8255   0.15845943 
    7900    254.73521   -84.721733    24451.118   -8581.8902    606.69451   -9188.5847   0.16160502 
    7950    273.20375    33.880248    24459.003   -8515.0329    650.68041   -9165.7133   0.17155978 
    8000    276.74272   -10.602742    24473.469   -8518.7904    659.10908   -9177.8995   0.16357503 
    8050    277.60284    21.513357    24481.351    -8514.052     661.1576   -9175.2096   0.15755036 
    8100    274.28475   -46.398173    24479.278   -8517.3015      653.255   -9170.5565   0.17046156 
    8150    277.87838    104.76851    24493.616   -8479.6381    661.81384    -9141.452     0.167769 
    8200    271.54682    31.896763    24488.025   -8501.4968    646.73416   -9148.2309   0.15865731 
    8250     272.1349   -45.920738    24481.526   -8495.6691    648.13478   -9143.8039   0.17927747 
    8300    280.41112   -13.916269     24488.99   -8500.5178    667.84598   -9168.3638   0.16674183 
    8350    287.61256    56.749609    24502.545   -8492.8317    684.99741   -9177.8291   0.16784526 
    8400    283.60726     55.76532    24506.116   -8471.0599    675.45812    -9146.518    0.1619295 
    8450    271.55986    13.847365    24504.324   -8491.4358    646.76523   -9138.2011   0.17237996 
    8500    278.95686   -72.121793    24488.915   -8517.0155    664.38242   -9181.3979   0.16336452 
    8550    279.55164   -12.983305    24482.664   -8543.9907    665.79899   -9209.7896   0.15866211 
    8600    281.83654     50.19029    24470.887    -8533.123    671.24086   -9204.3639   0.15693016 
    8650    259.27679   -118.36744     24478.66   -8548.4674    617.51103   -9165.9785   0.16569378 
    8700    282.17293     147.2909    24462.533   -8510.2559    672.04202    -9182.298   0.15658726 
    8750    269.30144   -39.043619     24454.62   -8531.5335    641.38642   -9172.9199   0.17496471 
    8800    264.71172   -61.934878    24454.396   -8555.4747    630.45523     -9185.93   0.16705105 
    8850    266.74103   -76.056598    24460.078    -8541.056    635.28837   -9176.3444    0.1529932 
    8900    274.07614    43.807173    24450.563    -8556.145    652.75816   -9208.9031   0.16274765 
    8950    268.33186      61.8259    24443.029   -8559.0619    639.07721   -9198.1391   0.14839119 
    9000     254.0789    98.582748    24433.988   -8559.0139    605.13139   -9164.1453   0.17206888 
    9050    264.59196   -166.71384    24454.546   -8526.8421    630.17001   -9157.0121   0.16544996 
    9100    277.06737    59.326933    24451.065   -8532.1134    659.88227   -9191.9957   0.15817605 
    9150    263.31997    18.320809    24454.411   -8547.6318    627.14054   -9174.7723    0.1481743 
    9200    266.51495   -27.890201    24470.953   -8503.4829    634.74993   -9138.2328   0.17295031 
    9250    271.77121    25.423905    24481.841   -8498.8419    647.26859   -9146.1105   0.16258622 
    9300    266.12292   -25.810042    24468.232    -8530.688    633.81624   -9164.5043   0.16342807 
    9350    263.46779   -53.396189    24447.492   -8577.9506    627.49261   -9205.4432   0.14883571 
    9400    266.44421   -5.9304095    24437.365   -8565.6198    634.58145   -9200.2012   0.15371198 
    9450    264.20934   -4.9183221    24441.777   -8548.5198    629.25872   -9177.7785   0.16301081 
    9500    260.19579   -45.483531     24439.76   -8551.1233    619.69979   -9170.8231   0.15656841 
    9550    260.48153   -60.595049    24437.022    -8565.292    620.38033   -9185.6724   0.16981346 
    9600    270.86872    55.299492    24444.228   -8559.5537    645.11916   -9204.6729   0.14869525 
    9650    262.88261    84.525962    24450.532   -8546.0285    626.09889   -9172.1274   0.15855827 
    9700    258.36346   -63.924079    24459.302   -8528.7554    615.33578   -9144.0911   0.16813925 
    9750    274.62707   -19.596202     24472.94   -8507.6359     654.0703   -9161.7062   0.16923245 
    9800    284.53443    2.1944034    24481.171   -8515.2728    677.66634   -9192.9391   0.14808749 
    9850    279.31939    40.018204      24479.4   -8515.7505    665.24583   -9180.9963   0.16719916 
    9900    274.96175     25.29534    24481.808   -8516.9037    654.86739   -9171.7711   0.15382949 
    9950    285.97573    24.188302    24471.043   -8512.9212    681.09903   -9194.0202   0.15642871 
   10000    271.13966    7.6031715    24472.751   -8506.1202    645.76443   -9151.8847   0.15542387 
   10050    258.40844   -66.978672    24470.947   -8544.8209    615.44292   -9160.2638   0.15453713 
   10100    268.59254   -29.381638    24461.756   -8509.2641    639.69806   -9148.9621   0.17090066 
   10150    285.56687   -50.778967    24470.357   -8511.0858    680.12526   -9191.2111   0.15239545 
   10200     272.9772   -86.036128     24473.17   -8482.8713    650.14086   -9133.0122    0.1676547 
   10250    282.82476    29.637195    24487.341   -8460.7633    673.59447   -9134.3577     0.167498 
   10300    283.63098   -68.903133    24491.963   -8481.7401    675.51462   -9157.2547   0.17108799 
   10350    285.72933   -29.876544    24481.901   -8483.1085    680.51219   -9163.6206   0.15694506 
   10400     273.4386   -32.398974    24474.885   -8493.2291    651.23975   -9144.4688   0.17020813 
   10450     274.0486   -86.123392      24475.4   -8502.8756    652.69256   -9155.5682   0.16487357 
   10500    277.94746    89.586482    24447.057   -8525.2469    661.97837   -9187.2252   0.16104956 
   10550     278.4037    53.642951    24449.316   -8541.1286    663.06496   -9204.1935   0.15538691 
   10600    262.76269   -107.34313    24430.941   -8570.1786    625.81328   -9195.9919   0.16307877 
   10650    268.93713   -34.291944    24439.432     -8572.17    640.51875   -9212.6887   0.14200271 
   10700    271.81383     44.34817    24438.216   -8562.0091    647.37009   -9209.3792   0.14723011 
   10750    270.10121   -9.7942186    24436.193   -8557.2569    643.29119   -9200.5481    0.1633964 
   10800    264.00827   -86.318213      24438.7   -8562.7171    628.77984    -9191.497   0.16648709 
   10850    267.08335    22.354491    24439.902   -8595.5893    636.10367    -9231.693   0.14310873 
   10900    263.47496   -28.008577    24428.408   -8595.5452    627.50968   -9223.0549   0.14690119 
   10950    259.72824    63.207215    24436.114   -8596.6507    618.58624   -9215.2369   0.15027435 
   11000    253.66256    46.090422    24430.188   -8612.7636    604.13982   -9216.9034   0.14257764 
   11050    260.19263   -1.8597843    24437.525   -8561.6141    619.69225   -9181.3063    0.1773127 
   11100    265.41635    56.918609    24457.674   -8509.2215    632.13342   -9141.3549   0.16512044 
   11150    279.30961    155.05967    24470.772   -8518.6162    665.22254   -9183.8388   0.15192535 
   11200    276.19448   0.88759889    24465.256   -8522.4641    657.80334   -9180.2675   0.15463029 
   11250    263.49036   -26.441641    24453.401   -8562.5602    627.54635   -9190.1066   0.16640345 
   11300    264.58592    44.497501    24455.029   -8556.6182    630.15561   -9186.7738   0.15865236 
   11350    263.29573    45.239133    24469.534   -8545.4348    627.08282   -9172.5176   0.16070742 
   11400    257.80866   -94.249248    24468.951   -8565.4251    614.01445   -9179.4395   0.15267108 
   11450    273.28844    91.334163    24471.426   -8531.6728    650.88212    -9182.555   0.15152029 
   11500    276.25697   -16.787348    24468.272    -8527.637    657.95216   -9185.5891   0.16686469 
   11550    268.10208   -17.896997    24489.127   -8484.3341    638.52993    -9122.864   0.17269918 
   11600    283.71325   -54.288187    24491.875   -8475.5105    675.71055   -9151.2211    0.1697832 
   11650    271.32265   -12.017311    24499.613   -8479.3724    646.20025   -9125.5727   0.16062675 
   11700    276.24887   -2.7369745    24486.294   -8478.9893    657.93289   -9136.9222   0.17420851 
   11750    281.38103   -46.390167    24498.063   -8457.0948    670.15597   -9127.2507   0.16923331 
   11800    278.71692   -70.497819    24485.909   -8471.2108    663.81095   -9135.0217    0.1846127 
   11850     284.4323    8.3573711    24486.335   -8498.8334    677.42309   -9176.2565   0.15574102 
   11900    270.60345   -47.622817    24475.855   -8513.9218    644.48736   -9158.4091    0.1715515 
   11950    273.11801    13.488781    24467.262   -8518.5687    650.47621   -9169.0449   0.16450481 
   12000    267.15554   -11.545236    24472.249   -8526.7551    636.27558   -9163.0307   0.17148029 
   12050    274.98257    31.694249    24471.114    -8501.969    654.91697    -9156.886   0.16532058 
   12100    273.00453    40.641269    24477.641   -8504.6525    650.20595   -9154.8585   0.16691778 
   12150     263.0762    27.518762    24466.701   -8537.5888    626.55997   -9164.1488   0.16399267 
   12200     271.4871   -74.606981    24459.791   -8524.8597    646.59193   -9171.4516   0.16117093 
   12250    271.85416   -27.969622     24456.18   -8511.8433    647.46615   -9159.3094    0.1768872 
   12300    265.53059   -17.414871    24453.806   -8534.0913    632.40551   -9166.4968   0.15832237 
   12350    265.98055   -25.471144    24442.897   -8565.8052    633.47715   -9199.2824   0.16703575 
   12400     265.0102     26.01437    24437.944   -8541.8676    631.16611   -9173.0337   0.15135721 
   12450    275.12853    72.474944    24451.998   -8510.3283    655.26461   -9165.5929   0.16820589 
   12500     276.2272    67.968502    24453.486   -8516.8025    657.88126   -9174.6837   0.15712124 
   12550    267.24715    18.896194    24465.993   -8502.6602    636.49377    -9139.154   0.17164327 
   12600    270.13028    83.706954    24460.585   -8510.0069    643.36043   -9153.3673   0.15771634 
   12650    275.67218   -25.482366    24470.505   -8509.9974    656.55939   -9166.5568   0.16442616 
   12700    275.85414   -89.316702    24458.122   -8511.5953    656.99277   -9168.5881   0.16296383 
   12750    268.35191    15.381805    24457.378   -8517.4161    639.12495    -9156.541   0.15801585 
   12800    263.32727    22.186531    24453.817   -8547.0468    627.15793   -9174.2047     0.158969 
   12850    264.25243   -45.742335    24454.683   -8520.4509    629.36136   -9149.8123   0.17005784 
   12900    256.58075   -40.500211    24452.076   -8543.8692    611.08995   -9154.9591   0.16450168 
   12950    270.43066    117.50061    24457.848   -8516.7385    644.07583   -9160.8144   0.15015209 
   13000    271.07709   -57.632848    24461.049   -8494.4199    645.61542   -9140.0353   0.18181346 
   13050     273.6363    73.993551     24451.38    -8521.574     651.7106   -9173.2846   0.15484206 
   13100    267.19899   -55.151645    24455.992   -8537.5697    636.37908   -9173.9488   0.16429598 
   13150    265.76517   -95.378335    24447.096   -8555.5514    632.96419   -9188.5156   0.15445261 
   13200    260.64926   -103.94375    24449.604   -8564.8325    620.77981   -9185.6123   0.16156374 
   13250    266.42068    20.637937    24447.204   -8549.7023    634.52541   -9184.2277   0.14733578 
   13300    266.96029   -30.816189    24444.612    -8557.941    635.81058   -9193.7516   0.16035212 
   13350    261.31644   -50.776373    24446.162   -8574.8423     622.3688   -9197.2111   0.15237357 
   13400    271.35185    29.531278    24449.824    -8564.473    646.26982   -9210.7429   0.14509944 
   13450    261.22072   -38.493329    24453.006   -8570.8623    622.14082   -9193.0031   0.14989846 
   13500    262.78184   -15.877883    24450.134   -8536.3097    625.85889   -9162.1685   0.15726886 
   13550    265.82916    37.432534    24474.135    -8526.861    633.11661   -9159.9776   0.16123466 
   13600    269.13401    14.298532     24476.54   -8538.0193    640.98764   -9179.0069   0.14611905 
   13650    261.86193   -54.698421    24473.616   -8533.3556    623.66799   -9157.0236   0.15885595 
   13700    274.85314    -99.31243    24475.006   -8555.1849    654.60871   -9209.7936   0.13928925 
   13750    263.12443    56.330836    24469.301   -8554.0926    626.67483   -9180.7674   0.15173025 
   13800    282.84505   -16.759939    24477.912   -8531.9254    673.64279   -9205.5682   0.14796555 
   13850    269.97763   -66.638089    24488.473   -8529.9863    642.99688   -9172.9832   0.15266359 
   13900    257.50148   -10.537369    24473.296   -8540.4807    613.28284   -9153.7636   0.14624256 
   13950    268.47236    23.189511    24467.608   -8510.7312    639.41181    -9150.143   0.15180728 
   14000    270.23535   -33.411055    24475.402    -8502.162    643.61068   -9145.7727   0.15888962 
   14050    288.47603    32.106952    24482.386   -8472.1665     687.0539   -9159.2204    0.1595521 
   14100    283.03671    116.59391    24482.699   -8491.9309    674.09926   -9166.0302   0.15462662 
   14150    271.54319   -3.0489115    24475.887   -8525.5942    646.72552   -9172.3197   0.14299026 
   14200    267.72111   -20.249087    24468.355   -8544.2005     637.6226   -9181.8231   0.15441043 
   14250    264.98699    47.716756    24459.027   -8518.1463    631.11082   -9149.2571   0.15696497 
   14300    262.75421    41.595696    24446.116   -8543.7657    625.79309   -9169.5588   0.15305514 
   14350    255.84666   -4.6351848    24448.107   -8587.1329     609.3416   -9196.4745   0.14344388 
   14400    259.84822    87.638762    24437.014   -8575.4395    618.87199   -9194.3115    0.1413882 
   14450     265.7093    28.909742    24443.526   -8570.4774    632.83114   -9203.3086   0.14632269 
   14500    266.46214      9.06455    24458.774   -8541.8657    634.62414   -9176.4898   0.15098318 
   14550    260.27003   -25.763089    24462.742   -8572.3769     619.8766   -9192.2535   0.14708832 
   14600    262.38999    36.740757    24470.945   -8546.8739    624.92563   -9171.7995   0.14663017 
   14650    270.28163   -16.798632    24480.437   -8522.3103    643.72091   -9166.0312   0.14339205 
   14700    277.32367  -0.23213816    24484.268   -8521.0866     660.4927   -9181.5793   0.15236142 
   14750    271.94842   -23.030535    24472.179   -8536.5535    647.69064   -9184.2441   0.15195538 
   14800    280.16588   -52.006355    24490.149   -8483.3127     667.2619   -9150.5746    0.1537938 
   14850    271.60495    51.472752    24493.838   -8519.1109    646.87262   -9165.9835   0.15033225 
   14900    266.77335   -68.612716    24487.663   -8523.8033    635.36535   -9159.1686   0.15337761 
   14950    281.08989    12.340106    24489.367   -8518.3626    669.46259   -9187.8252   0.14962876 
   15000     277.5425   -55.543142      24496.6   -8533.1268    661.01389   -9194.1407   0.14674827 
   15050    271.14804   -46.299197    24481.696   -8537.8249     645.7844   -9183.6093   0.14958895 
   15100    268.81283     32.06675    24478.043    -8548.475    640.22272   -9188.6977   0.15162293 
   15150    279.54161   -4.9872852    24471.514   -8545.2325    665.77509   -9211.0076   0.14599619 
   15200    264.03154   -72.710618    24479.278   -8548.6579    628.83528   -9177.4931   0.14810997 
   15250    269.37746    35.214908    24491.805    -8507.666    641.56746   -9149.2334   0.15202993 
   15300    264.92859    21.866514    24487.674   -8524.4869    630.97174   -9155.4586   0.15233226 
   15350    264.46128   -37.507447     24486.63   -8553.9512    629.85876   -9183.8099   0.14244349 
   15400    261.07891   -60.288395    24466.579   -8553.2278    621.80308   -9175.0308   0.15846335 
   15450    263.07411    5.1833329    24468.957   -8549.0889      626.555   -9175.6438    0.1451125 
   15500    263.11214    10.398115    24464.919   -8556.4479    626.64555   -9183.0934   0.14423178 
   15550    272.85178    73.207622    24485.808   -8509.3307    649.84215   -9159.1729   0.14928548 
   15600    281.64501   -31.462688    24496.186   -8483.8611    670.78469   -9154.6458   0.16934887 
   15650    284.36609    7.0661855    24505.464   -8466.2824     677.2654   -9143.5478   0.16302247 
   15700    278.78828    -30.72937    24504.068   -8497.6015     663.9809   -9161.5824   0.15948699 
   15750    265.73797   -42.514323    24492.645   -8476.7361    632.89941   -9109.6355    0.1679606 
   15800    284.22621    62.834996    24480.913   -8491.5545    676.93226   -9168.4868   0.15998149 
   15850    271.82605    -31.46606    24475.912    -8510.507     647.3992   -9157.9062   0.15361546 
   15900    270.39861    13.827477    24474.408    -8504.103     643.9995   -9148.1025   0.16377736 
   15950    282.97061   -22.323541    24480.653   -8502.8949    673.94183   -9176.8367   0.15420211 
   16000    263.34837    22.997664    24466.993     -8516.05    627.20819   -9143.2582     0.145421 
   16050    268.77347      58.1854    24460.205   -8528.5201    640.12896    -9168.649   0.15651916 
   16100    264.12345   -20.582611    24455.976   -8548.2764    629.05416   -9177.3306   0.14903494 
   16150    268.42889    41.467445    24463.919   -8545.9809    639.30829   -9185.2892   0.14467682 
   16200    270.29742    71.020904    24467.152    -8486.065     643.7585   -9129.8235   0.15776601 
   16250    271.36711    9.1425854    24474.444   -8510.8112    646.30616   -9157.1174    0.1607573 
   16300    271.01729   -58.466948    24467.804   -8502.8865    645.47299   -9148.3595   0.15226342 
   16350    256.18711   -108.83415     24461.32   -8533.9166    610.15245    -9144.069   0.16784221 
   16400    267.11346    37.511544    24452.899    -8523.783    636.17538   -9159.9584   0.15943397 
   16450    263.96611    69.335153    24454.106    -8531.954    628.67942   -9160.6335   0.15499359 
   16500    273.82308    32.543539    24447.177   -8538.1781    652.15545   -9190.3336   0.15236894 
   16550    282.12966    27.455962    24457.931   -8501.8757    671.93895   -9173.8146    0.1602094 
   16600    278.25013    35.991507    24464.908   -8496.6874    662.69921   -9159.3866   0.15878985 
   16650    286.60448    54.093991    24469.267   -8473.2059    682.59651   -9155.8024   0.15450123 
   16700    275.76733   -93.409656    24465.574   -8496.7174    656.78601   -9153.5034   0.16721818 
   16750    276.31568   -39.721287    24443.102   -8494.6634    658.09201   -9152.7555   0.17089749 
   16800    286.61424    83.039812    24444.665   -8519.5359    682.61975   -9202.1556   0.15271965 
   16850    270.65663   -81.505394    24445.562   -8526.7578    644.61403   -9171.3719   0.16199751 
   16900    283.18767     20.98637    24453.052   -8507.6286    674.45878   -9182.0874   0.16291817 
   16950    269.26881    17.032587    24444.663   -8546.6714    641.30869   -9187.9801   0.15054027 
   17000    260.71343    21.945324     24441.49    -8550.048    620.93263   -9170.9806   0.16314165 
   17050    259.76077    48.880126    24445.933   -8556.2837    618.66372   -9174.9474   0.14362343 
   17100    270.42174    94.040954    24446.338   -8539.0427    644.05459   -9183.0972   0.15133062 
   17150    263.39648    29.540176    24444.954     -8534.21    627.32277   -9161.5328   0.14829029 
   17200    264.22555   -2.9085533    24436.567   -8567.0266    629.29734   -9196.3239   0.15402949 
   17250    263.35516   -48.017077    24432.935   -8577.5653    627.22434   -9204.7896   0.15109497 
   17300    253.26568   -8.1509081    24433.512   -8571.9351    603.19458   -9175.1297   0.15452537 
   17350    256.95554   -41.720865    24439.077   -8586.7203    611.98258   -9198.7029   0.14538412 
   17400    269.51551    133.50391     24432.97   -8574.7415    641.89625   -9216.6377   0.14309645 
   17450    256.02114   -78.108093    24441.977   -8598.7518    609.75716    -9208.509   0.15190918 
   17500    272.57807    58.670945    24443.407   -8538.5832    649.19027   -9187.7734   0.15201274 
   17550    274.89595   -36.013209    24449.267   -8544.3193    654.71068     -9199.03   0.15035451 
   17600    266.18813    -21.99136    24464.857   -8510.2529    633.97156   -9144.2245   0.15628891 
   17650    262.21292    -66.21135    24464.254   -8548.9273    624.50391   -9173.4312   0.15145955 
   17700    272.72929   -53.245014     24447.94   -8539.6498    649.55042   -9189.2002   0.14058444 
   17750    259.09163   -61.061511    24456.376   -8543.6347    617.07005   -9160.7048   0.16016787 
   17800    263.84501     72.74427    24456.006   -8566.8795    628.39101   -9195.2705   0.14508122 
   17850    270.98996    55.180546    24457.548   -8541.3108    645.40791   -9186.7187   0.14438974 
   17900    269.97787   -28.467357    24464.859   -8508.9525    642.99746     -9151.95   0.15770084 
   17950    268.15717   -4.2053112    24473.116   -8515.9815    638.66115   -9154.6426   0.15991462 
   18000     277.3552   -18.112231    24461.376   -8526.5842     660.5678    -9187.152   0.14667405 
   18050    275.80737   -28.528175    24453.747   -8537.8983    656.88138   -9194.7797   0.15738244 
   18100     271.4844   -47.254315    24465.671   -8502.9006     646.5855   -9149.4861   0.16006706 
   18150    279.71718     18.62262    24461.791   -8512.3807    666.19324   -9178.5739    0.1468233 
   18200    264.07927   -31.984374    24466.277   -8520.4811    628.94894     -9149.43    0.1598094 
   18250    264.33798    9.7591131     24459.45   -8526.8597    629.56512   -9156.4248   0.15454008 
   18300    278.88008    14.225052    24451.568   -8521.7304    664.19955     -9185.93   0.15709573 
   18350    278.18391     34.14934    24461.009   -8483.1219     662.5415   -9145.6634   0.15792035 
   18400    276.12504    32.258617     24472.89   -8518.8222    657.63797   -9176.4601   0.15410993 
   18450    267.72771   -50.102076    24469.682   -8529.1928     637.6383   -9166.8311   0.15439605 
   18500    264.13412   -41.737738    24450.757   -8543.8818    629.07957   -9172.9614   0.15795125 
   18550    274.20945   0.19533178     24465.53   -8521.6852    653.07565   -9174.7609   0.15575409 
   18600      283.169    8.6843996    24459.531   -8501.0158    674.41434   -9175.4301   0.16272486 
   18650    275.94521    38.111094    24466.892   -8493.3791    657.20965   -9150.5887    0.1551772 
   18700    269.85008   -57.896302    24458.945   -8520.2696     642.6931   -9162.9627   0.16472593 
   18750    274.83694   -49.291822    24462.839   -8509.3869    654.57014    -9163.957   0.16046055 
   18800    263.06833   -44.502519    24449.321   -8551.3339    626.54123   -9177.8751   0.15736124 
   18850    273.70333    -24.07998    24463.146   -8537.1189    651.87025   -9188.9892   0.15229776 
   18900    285.45542    -22.61479    24466.692    -8505.767    679.85983   -9185.6268   0.15277761 
   18950    266.05933   -81.168985    24447.867   -8525.5189    633.66478   -9159.1837   0.17222651 
   19000    278.22765    68.753219    24451.429   -8510.1808    662.64567   -9172.8265   0.15505274 
   19050    264.92384   -3.4860314    24451.874   -8490.2279    630.96043   -9121.1883   0.17577468 
   19100    274.17246   -26.389466    24445.308   -8529.6794    652.98757    -9182.667   0.15360068 
   19150     286.7534    32.509548    24453.729   -8491.3761    682.95117   -9174.3273   0.16814591 
   19200    270.22329   -19.085569    24454.892   -8513.1551    643.58195   -9156.7371   0.15636636 
   19250    260.96628   -48.929292     24437.67   -8534.3172    621.53483   -9155.8521   0.17399045 
   19300    277.11543    28.733139    24453.847    -8506.473    659.99673   -9166.4697   0.16144711 
   19350    289.61472    73.786394    24463.079   -8477.7914    689.76588   -9167.5573   0.16513627 
   19400    286.31239   -54.118385    24466.131   -8479.2006    681.90084   -9161.1014   0.16497726 
   19450    268.80314     47.35965    24462.175   -8503.2171    640.19963   -9143.4167   0.17005275 
   19500    276.37903    55.555629    24472.894   -8518.6513    658.24288   -9176.8942   0.15983874 
   19550    279.13371   -48.549104     24470.07   -8493.9527     664.8036   -9158.7563   0.16458407 
   19600    278.65579    27.000244    24489.686   -8498.2836    663.66536    -9161.949   0.15597416 
   19650    270.76504   -9.6548933    24481.287   -8507.5604    644.87222   -9152.4326   0.15926218 
   19700    278.40231   -50.462258    24482.274   -8515.6072    663.06167   -9178.6689   0.16150773 
   19750    267.58687    3.7776748    24480.366   -8517.8309    637.30288   -9155.1338   0.15903447 
   19800    275.96491    54.714329    24483.197   -8517.6768    657.25659   -9174.9334   0.15301332 
   19850    267.10651   -60.571308    24484.781   -8520.6541    636.15882   -9156.8129   0.15531721 
   19900    287.42271    30.336472    24490.421   -8479.9869    684.54525   -9164.5321   0.15987754 
   19950    279.06465    -53.24764    24480.441   -8514.1412    664.63914   -9178.7803   0.16261596 
   20000    271.26586   -46.670884    24476.226   -8528.0393      646.065   -9174.1043   0.15428451 
   20050    263.75795   -25.441598    24468.835   -8532.3175    628.18366   -9160.5011   0.15467575 
   20100    276.81906    34.739663    24463.612   -8523.8153    659.29088   -9183.1062   0.14990707 
   20150    271.83948   -44.038486    24458.955   -8539.7068    647.43117    -9187.138   0.15119594 
   20200    266.73284   -55.279666    24465.648    -8520.272    635.26887   -9155.5409   0.16192553 
   20250    266.91385    44.989208    24457.564   -8543.9358    635.69998   -9179.6358   0.15273215 
   20300    274.58317    39.004312    24468.351   -8530.1189    653.96574   -9184.0847   0.14653966 
   20350    268.43876   -3.8847123    24472.897   -8499.1541    639.33179   -9138.4859   0.17166025 
   20400     281.4715    107.87715    24481.048   -8489.6929    670.37145   -9160.0644   0.14660291 
   20450    272.62585    48.079582    24482.753   -8497.2736    649.30405   -9146.5777   0.16058094 
   20500    261.79436    33.157026    24473.101   -8521.8651    623.50706   -9145.3722   0.15031243 
   20550    266.03592   -5.1484902    24464.746   -8548.2393    633.60903   -9181.8484   0.14942343 
   20600     252.4469    -13.32529    24458.679   -8578.2517    601.24451   -9179.4963    0.1523209 
   20650    264.40944   -26.219217    24461.288   -8551.4995     629.7353   -9181.2348   0.15347083 
   20700    263.56631    33.567605    24458.983   -8590.9612    627.72725   -9218.6884   0.13250113 
   20750    260.50797    10.222914    24458.652   -8534.2011     620.4433   -9154.6444    0.1612852 
   20800    256.21623   -96.223375    24458.028   -8554.0042     610.2218    -9164.226   0.15005609 
   20850    271.70031    11.434798     24469.53   -8511.0135    647.09973   -9158.1133   0.15920114 
   20900    272.49116   -58.435578      24480.2   -8495.6395    648.98326   -9144.6227    0.1613203 
   20950    274.17763   -1.3802774    24488.378   -8514.9471    652.99988    -9167.947   0.14520485 
   21000    271.09021   -52.545213    24469.513   -8532.9653    645.64667    -9178.612   0.16797151 
   21050     272.7357   -12.187302    24462.152     -8544.42    649.56567   -9193.9856   0.14883339 
   21100    273.30397    45.674834    24465.277   -8515.6644    650.91911   -9166.5835   0.16738761 
   21150    259.11626   -29.349603     24471.56   -8518.3064     617.1287   -9135.4351   0.16911949 
   21200    272.44087   -23.067212    24472.861   -8527.4675     648.8635    -9176.331   0.15780775 
   21250    265.25698    -32.71463    24472.483   -8518.1212    631.75386    -9149.875   0.16871657 
   21300     285.4954    42.693147    24478.449   -8490.5615    679.95504   -9170.5165   0.16901209 
   21350    274.25636   -17.994641    24479.403   -8499.6602    653.18739   -9152.8476   0.15498644 
   21400     278.8053    43.341324    24474.178   -8525.2891    664.02145   -9189.3106   0.15178275 
   21450    273.05966    10.785288    24474.751    -8531.663    650.33725   -9182.0003   0.15783043 
   21500    283.16261    28.879511    24478.059   -8491.0686    674.39911   -9165.4677   0.16139607 
   21550    276.01279    -1.460719    24472.551   -8487.3121    657.37061   -9144.6827   0.16880174 
   21600    271.49437   -15.470993    24482.518   -8507.6354    646.60924   -9154.2446   0.15431362 
   21650    276.67197   -12.795175    24487.812   -8482.9656    658.94056   -9141.9062   0.17361695 
   21700    268.23365    53.502055    24475.289   -8517.9629    638.84329   -9156.8062   0.14548622 
   21750    264.14463   -75.144307    24460.657    -8546.029    629.10461   -9175.1337   0.16136305 
   21800    263.97802   -29.437913    24437.038   -8562.4186    628.70781   -9191.1264   0.14856169 
   21850    261.74015   -35.088598    24437.938   -8546.5981    623.37794   -9169.9761   0.16522405 
   21900    274.91192    11.250368    24441.528   -8544.3781    654.74871   -9199.1268    0.1477915 
   21950    269.48551   -17.938811    24448.655   -8549.1994     641.8248   -9191.0243   0.16127762 
   22000    261.57287   -81.851076    24459.068   -8538.5946    622.97953   -9161.5742   0.15632258 
   22050    275.34358     -4.72365    24454.264   -8572.2073    655.77679   -9227.9841   0.14901048 
   22100    267.82115   -39.013645    24459.758   -8538.9081    637.86087    -9176.769   0.15531561 
   22150    267.01029   -95.077433    24462.498   -8550.0772    635.92966   -9186.0069   0.15498492 
   22200    262.49201   -102.79025    24456.223   -8589.0775    625.16861   -9214.2462   0.14541603 
   22250    265.72709   -64.878025    24443.876   -8599.0621    632.87349   -9231.9356   0.14194052 
   22300    267.58025    66.925507    24436.161   -8587.2316    637.28712   -9224.5187   0.14595409 
   22350    273.41316    36.381357    24455.083    -8555.396    651.17917   -9206.5751   0.14679994 
   22400    274.99419     91.53296    24469.307    -8505.843    654.94465   -9160.7876   0.16401977 
   22450    277.40883   -12.297227    24488.167   -8515.8238    660.69552   -9176.5193   0.14818765 
   22500    273.80189   -43.390949    24475.225   -8518.1163      652.105   -9170.2213   0.17580727 
   22550    271.37481    59.171703    24468.843   -8522.4987    646.32449   -9168.8232    0.1476125 
   22600    255.66891   -46.995303    24458.428   -8538.7752    608.91828   -9147.6935    0.1735796 
   22650    264.81537    10.431087     24464.92   -8528.9751    630.70209   -9159.6772   0.16349659 
   22700    276.95497    62.446509    24455.648   -8544.9909    659.61457   -9204.6054   0.15263495 
   22750    269.03348    49.859529    24449.889   -8537.9536    640.74823   -9178.7019   0.14868659 
   22800    267.46722    17.874501    24455.529   -8542.1073     637.0179   -9179.1252   0.15593932 
   22850    272.66924   -73.422181    24464.483   -8510.3187     649.4074   -9159.7261   0.16927367 
   22900     275.4195     28.09403    24462.162   -8530.7032    655.95759   -9186.6608   0.15347044 
   22950     257.1884     35.07079    24457.911   -8543.1147    612.53718   -9155.6519   0.15840159 
   23000    268.09972   -45.216938    24445.733   -8550.9781    638.52431   -9189.5024   0.15439907 
   23050    265.00113   -4.0332807    24442.319   -8555.3697    631.14451   -9186.5142    0.1608652 
   23100    275.83634    85.562774    24447.024   -8552.5128    656.95037   -9209.4632   0.14581353 
   23150     266.1082    90.000745    24451.953   -8531.9347    633.78118   -9165.7158   0.17063164 
   23200    272.04002    68.693901    24459.861   -8538.0005    647.90881   -9185.9093   0.14551319 
   23250    270.13291   -4.0242163    24464.515   -8506.7619     643.3667   -9150.1286   0.16569618 
   23300    276.44206   -69.242283     24462.03   -8508.5759      658.393   -9166.9689   0.15450501 
   23350    279.97892    2.5295344    24466.119   -8510.2447    666.81662   -9177.0613   0.16215023 
   23400    269.31584   -70.099879    24468.766   -8490.5427    641.42071   -9131.9634   0.16707274 
   23450    276.80853   -44.557577    24477.387   -8516.2304    659.26579   -9175.4962    0.1506329 
   23500    273.66012    55.333561    24468.874   -8501.2732    651.76734   -9153.0406   0.16213361 
   23550    271.14553   -33.078338    24473.433   -8513.8158    645.77842   -9159.5942   0.15928967 
   23600    289.09181   -21.469623    24489.665   -8464.7123    688.52048   -9153.2328   0.16454066 
   23650    273.23663   -48.601909    24485.075   -8481.9385    650.75872   -9132.6972   0.16093857 
   23700    282.02917   -40.880136    24483.402   -8503.6152    671.69962   -9175.3148   0.16507885 
   23750    278.53785    3.8538873    24460.159   -8509.8954    663.38447   -9173.2799   0.15646383 
   23800    278.08768      47.6483    24473.384   -8501.3555    662.31231   -9163.6678   0.16910543 
   23850    272.84707     53.11412    24471.936   -8508.6168    649.83092   -9158.4477   0.15578517 
   23900    243.19476   -102.24562    24451.356   -8552.1164    579.20899   -9131.3254    0.1724073 
   23950     262.3922   -84.005279    24447.085   -8541.5768    624.93091   -9166.5078   0.15526424 
   24000    270.88773    13.828812    24451.848    -8522.819    645.16442   -9167.9835   0.16496107 
   24050    275.38323   -39.475064    24461.679   -8502.3875    655.87122   -9158.2587   0.16216012 
   24100    281.25446    8.6026329    24464.275   -8494.5548    669.85454   -9164.4093   0.16024575 
   24150    278.98701    -17.69775    24463.335   -8505.8828    664.45422   -9170.3371   0.16365527 
   24200    266.62965   -33.891599    24466.855   -8478.2777    635.02311   -9113.3008    0.1708873 
   24250    269.45933    71.541281    24464.323   -8517.5369    641.76247   -9159.2994   0.15646312 
   24300    263.74911   -24.663275    24451.845   -8558.0346     628.1626   -9186.1972   0.15174993 
   24350    268.93445    8.4059041    24458.127   -8543.6014    640.51237   -9184.1138   0.15172446 
   24400    266.73601   -27.117875    24453.075   -8546.3162    635.27643   -9181.5926      0.14895 
   24450    279.02694     73.08551    24451.463   -8540.6506    664.54931   -9205.1999   0.15301038 
   24500    270.23185     47.44817    24448.588   -8526.7466    643.60234   -9170.3489   0.16581869 
   24550    271.38146    13.110929     24437.78   -8545.1571    646.34034   -9191.4974   0.15302622 
   24600    260.32547    53.366627    24437.738   -8564.8425    620.00864   -9184.8512   0.15157314 
   24650    262.88775    14.860384    24434.092   -8586.2108    626.11113   -9212.3219   0.15333276 
   24700    260.59203    -119.8968    24437.634   -8574.4925     620.6435    -9195.136   0.15850431 
   24750    256.42525    12.809103    24443.371   -8570.4603    610.71961   -9181.1799   0.14894591 
   24800    260.17364    38.978389    24439.818   -8539.8382    619.64704   -9159.4852   0.16431682 
   24850    279.61854    16.480175    24455.419   -8557.1887     665.9583   -9223.1471    0.1450258 
   24900    267.59894      33.5612    24453.166   -8536.5083    637.33162   -9173.8399   0.16172221 
   24950    257.51343    -7.255943    24447.248   -8557.6161     613.3113   -9170.9274   0.15821863 
   25000    258.86264   -41.253352    24442.416   -8571.6076    616.52466   -9188.1322   0.14728831 
   25050    273.02922    26.422274    24455.936   -8538.2035    650.26474   -9188.4683   0.15026797 
   25100    260.60769   -31.156985    24455.317   -8572.6703    620.68081   -9193.3511   0.15322695 
   25150    262.39392    27.782166    24451.831   -8572.5452    624.93499   -9197.4802   0.14925493 
   25200    257.03062   -49.222577    24445.067   -8589.0614    612.16141   -9201.2228   0.15985523 
   25250    260.64265    84.359423    24439.276    -8605.932    620.76406    -9226.696   0.14220318 
   25300    260.87072    44.418707    24442.429   -8580.7841    621.30724   -9202.0914   0.14284891 
   25350    265.62484    39.872364    24455.362   -8564.8641    632.62997   -9197.4941   0.15850611 
   25400     272.2328    164.16148    24471.133   -8523.6201    648.36794   -9171.9881   0.16070554 
   25450     267.9363    81.427066    24470.027   -8539.2969    638.13511    -9177.432   0.15633812 
   25500    275.03152    22.462367    24467.494   -8530.0323    655.03355   -9185.0659   0.15443824 
   25550    279.97214   -2.0829377    24483.452   -8508.8364    666.80048   -9175.6369   0.16337546 
   25600     265.7348    45.074524    24478.021    -8546.095    632.89188   -9178.9869   0.15642142 
   25650    280.88998    29.649152    24487.301   -8487.5054    668.98647   -9156.4919   0.16730388 
   25700    275.33914   -18.020023    24483.711   -8513.4855    655.76622   -9169.2517   0.16479957 
   25750    269.27859    20.251063    24468.469   -8527.5423      641.332   -9168.8743   0.15225858 
   25800    264.70624    38.407968    24465.836   -8541.7669    630.44217   -9172.2091   0.15974031 
   25850    273.62492    56.092756    24466.741   -8498.9044     651.6835   -9150.5879   0.17115352 
   25900    281.55276   -22.032095    24475.783   -8474.9202    670.56499   -9145.4852   0.18049835 
   25950    284.15587   -16.794923    24491.822   -8489.1721    676.76471   -9165.9368   0.15351451 
   26000    273.29329   -81.708228    24482.496   -8521.8377    650.89366   -9172.7314   0.17389164 
   26050    263.36721    40.861767    24464.591   -8535.1968    627.25305   -9162.4499   0.15417337 
   26100    260.74353   -49.320651    24461.896   -8526.0396    621.00432   -9147.0439   0.18116851 
   26150    271.96689    17.101127    24455.931   -8530.5454    647.73463   -9178.2801   0.16580503 
   26200    287.58405    66.502564    24464.639   -8524.4248    684.92951   -9209.3543   0.15770349 
   26250    269.86132    40.404465    24454.639   -8542.9699    642.71987   -9185.6898   0.15577236 
   26300    270.27328    35.635013    24440.796   -8551.4028    643.70102   -9195.1038   0.16207375 
   26350    255.01976   -27.261927    24425.862   -8575.6362     607.3722   -9183.0084   0.16530917 
   26400    268.21639   -10.226677    24426.369   -8553.7547    638.80218   -9192.5569   0.15458956 
   26450    271.65485    38.856735    24430.648    -8552.675    646.99145   -9199.6664   0.16042268 
   26500    267.36808   -9.9864701    24448.653   -8519.1072    636.78179    -9155.889   0.16434423 
   26550     278.4748    49.895832     24454.09   -8517.9489     663.2343   -9181.1832   0.16645085 
   26600    273.11698   -53.750208    24451.388   -8518.3489    650.47375   -9168.8226   0.16139725 
   26650    278.00256    170.03532    24470.257   -8503.4588    662.10958   -9165.5684   0.16233606 
   26700    271.78324   -22.300924    24470.228   -8514.5635    647.29724   -9161.8607   0.15511571 
   26750    284.53493    5.1322926    24476.223   -8486.6572    677.66752   -9164.3247   0.17266141 
   26800     265.7631   -15.019988    24471.731   -8510.9201    632.95927   -9143.8794   0.15559412 
   26850    275.36268    76.938422    24464.546   -8524.7108    655.82226    -9180.533   0.15695251 
   26900    263.25571   -15.884464    24463.371   -8529.7732    626.98749   -9156.7607   0.15814668 
   26950    280.95554    49.614494    24479.114   -8453.5532     669.1426   -9122.6958   0.16625038 
   27000    269.92817    -65.81375    24487.507   -8489.8853    642.87907   -9132.7644    0.1714948 
   27050     274.6213   -96.141988    24491.611   -8512.4894    654.05656    -9166.546   0.16143985 
   27100    275.15222    40.499985    24480.399   -8515.1123    655.32104   -9170.4333   0.15031716 
   27150     275.4373    65.185518    24469.527   -8503.9522          656   -9159.9522   0.15650661 
   27200    273.79481    4.6008042    24465.505   -8509.5803    652.08812   -9161.6685   0.17475957 
   27250    266.83981   -26.463327     24467.53   -8523.7717    635.52363   -9159.2953   0.15786005 
   27300    276.03838    43.689245    24470.202   -8502.1725    657.43157   -9159.6041   0.15936233 
   27350    278.40099    29.762157    24487.349   -8477.1412    663.05852   -9140.1997   0.16126181 
   27400    264.96189   -44.973249    24491.296   -8492.2004    631.05106   -9123.2515   0.17563176 
   27450    267.10578   -26.148936    24483.977   -8515.2416    636.15709   -9151.3987   0.16457924 
   27500    273.19197    -72.70779    24474.529   -8526.5892    650.65236   -9177.2416   0.16473987 
   27550    266.58785    -46.63896    24456.582    -8549.145    634.92355   -9184.0686   0.15861487 
   27600    269.47164    6.4427157    24465.345   -8565.2705    641.79178   -9207.0623    0.1382855 
   27650    259.91297   -62.108538    24444.284    -8567.272     619.0262   -9186.2982   0.15870798 
   27700     268.8079    68.145236    24452.526    -8534.774    640.21096    -9174.985   0.16046509 
   27750    277.36506   -16.789177    24470.667   -8523.0888    660.59127     -9183.68   0.16037613 
   27800    279.85684    31.677116    24479.806   -8493.8665    666.52585   -9160.3924   0.15281075 
   27850      252.369   -26.661416    24467.685   -8518.6822    601.05898   -9119.7412   0.17798501 
   27900    266.04649    -3.412303    24461.633   -8537.3121    633.63422   -9170.9463   0.14951358 
   27950    264.06024    35.074825     24450.04    -8562.037    628.90362   -9190.9406   0.15826762 
   28000    279.72343    35.813376    24462.857   -8529.9115    666.20812   -9196.1197   0.14830288 
   28050    252.82822    8.3517061    24464.362   -8545.9937    602.15268   -9148.1463   0.15865789 
   28100    260.67009    -63.46567    24460.496   -8557.2846    620.82942    -9178.114   0.15837858 
   28150    266.71739   -30.850663    24460.028   -8537.7608    635.23207   -9172.9929   0.16397683 
   28200    274.77985    17.703944    24465.755   -8524.0536    654.43416   -9178.4878   0.16076299 
   28250    261.37665   -81.791834    24464.991   -8542.8462    622.51221   -9165.3584   0.15718396 
   28300    274.28404    26.787896    24467.327    -8537.994    653.25332   -9191.2473   0.15131586 
   28350    273.36582    35.280749    24457.466     -8539.38    651.06642   -9190.4464   0.14823777 
   28400    275.78602   -15.633796    24452.037   -8524.9063    656.83053   -9181.7369   0.16481237 
   28450    264.30114   -44.980203    24451.298   -8547.2228    629.47736   -9176.7002    0.1504186 
   28500    269.80506    92.172292    24456.925   -8532.3163    642.58587   -9174.9022   0.16337343 
   28550    256.70146    54.142761    24464.547   -8552.7878    611.37745   -9164.1652   0.15087922 
   28600    270.66062   -37.368297    24463.578   -8551.5116    644.62354   -9196.1352   0.16692721 
   28650       262.33   -13.391573     24464.77   -8557.4832    624.78276    -9182.266   0.15187771 
   28700    273.13383    64.843991    24463.352    -8548.879     650.5139   -9199.3929   0.14969116 
   28750    271.13014   -32.203321    24457.969   -8541.7421    645.74177   -9187.4838   0.15896767 
   28800    258.32736   -59.509768    24455.925   -8556.8513     615.2498   -9172.1011   0.16435234 
   28850    264.50847    33.655168    24440.333   -8558.0811    629.97115   -9188.0522   0.15769595 
   28900    261.80717    26.206721    24444.619   -8550.6156    623.53757   -9174.1532   0.15911815 
   28950    267.03319   -13.362658     24455.04   -8549.6616    635.98421   -9185.6458   0.15539714 
   29000    263.45177   -17.040171    24454.792   -8537.3238    627.45444   -9164.7782   0.16014125 
   29050    275.98189    14.567514    24462.867   -8519.0359    657.29702   -9176.3329   0.17237628 
   29100    267.90522   -22.476226    24458.991   -8520.7879    638.06108    -9158.849   0.15450958 
   29150    283.72149    18.974706    24455.973   -8510.4642    675.73019   -9186.1944   0.16217195 
   29200    271.08451    36.979717    24452.712   -8506.9114    645.63309   -9152.5445   0.15812007 
   29250    274.74504    55.893044    24466.842   -8482.9073    654.35127   -9137.2585   0.16902958 
   29300    264.28557   -47.877216     24463.45   -8525.2242    629.44028   -9154.6644   0.16167113 
   29350    264.24273    63.586761    24450.764   -8531.3004    629.33826   -9160.6386   0.15594318 
   29400    275.66838   -20.408742    24453.677   -8526.9629    656.55034   -9183.5133   0.14817789 
   29450    275.56313    33.994145    24453.681   -8521.7064    656.29968   -9178.0061   0.16029259 
   29500     272.9803   -85.343217    24461.705   -8504.2813    650.14825   -9154.4295   0.16584816 
   29550    263.95392    34.541382    24476.924   -8527.2567    628.65039   -9155.9071   0.16038303 
   29600    267.79074  -0.69957089    24465.977   -8552.0331    637.78842   -9189.8215   0.15362543 
   29650    269.27813   -36.379427    24469.514   -8523.9863    641.33089   -9165.3172   0.15232596 
   29700    272.07412   -17.044459    24480.572   -8494.7821    647.99002   -9142.7721   0.17134526 
   29750    259.36317   -51.403497    24465.062   -8529.9828    617.71677   -9147.6996    0.1631006 
   29800    259.33144     30.59024     24450.61   -8553.1555    617.64119   -9170.7967   0.16548336 
   29850    256.04044  -0.70576375    24433.914   -8577.2148    609.80313    -9187.018   0.14890695 
   29900    273.61045    3.0643813    24445.892   -8548.3725    651.64905   -9200.0215   0.15996248 
   29950    259.95923    21.904908    24454.821   -8552.6947    619.13639    -9171.831   0.16206573 
   30000    262.18809    20.254668    24458.063   -8556.1157    624.44478   -9180.5605   0.16208695 
   30050    262.10124   -41.697908     24443.22   -8596.8054    624.23793   -9221.0434   0.15544835 
   30100    265.67351    85.174193    24442.418   -8582.7118     632.7459   -9215.4577   0.14912463 
   30150    257.37512   -50.298932     24458.42   -8555.7618    612.98188   -9168.7437   0.15686115 
   30200    264.69852    26.846019    24448.346   -8559.9367    630.42379   -9190.3605   0.14706445 
   30250    258.90994    15.980584    24467.899   -8572.3338    616.63731   -9188.9711   0.15811465 
   30300    262.56053     4.039646    24466.658    -8545.532    625.33182   -9170.8638   0.14877184 
   30350    254.31852   -74.082087    24457.713   -8575.5158    605.70208   -9181.2179   0.15994253 
   30400    275.83585   -21.952801    24473.925   -8511.2049    656.94921   -9168.1542   0.15577486 
   30450    252.47081   -69.110842    24470.291   -8571.0203    601.30144   -9172.3217    0.1586144 
   30500    259.98593      22.8773    24449.335   -8608.5091    619.19997   -9227.7091   0.13824375 
   30550    245.12724   -60.290087    24437.543   -8621.0058    583.81151   -9204.8173   0.15462508 
   30600    265.87501    94.640258    24440.261   -8584.2515    633.22579   -9217.4773   0.14603021 
   30650    270.11952    23.604126    24446.059   -8579.3186    643.33481   -9222.6535   0.14895777 
   30700    259.27192    -21.23139    24460.816   -8532.5609    617.49944   -9150.0603   0.15890828 
   30750    255.76409   -25.404525    24450.804   -8577.9113    609.14495   -9187.0563   0.15377701 
   30800    265.61864    37.610559    24452.888   -8548.8456     632.6152   -9181.4608   0.15981297 
   30850    270.37024    56.651141    24456.266   -8537.3396    643.93194   -9181.2715   0.15153642 
   30900    268.40029    28.137551    24465.913   -8523.0716    639.24018   -9162.3118   0.16417773 
   30950    273.61501    5.9936804    24476.603   -8509.6448     651.6599   -9161.3047   0.15973464 
   31000    270.93822   -9.9487527    24477.934   -8513.6737    645.28469   -9158.9584   0.15886081 
   31050    263.17438    11.442547    24487.138   -8520.4775     626.7938   -9147.2713   0.16005398 
   31100    275.52395   -1.4980225    24485.484    -8506.561    656.20637   -9162.7674   0.16866452 
   31150    276.15473   -39.661846    24475.372   -8526.4361    657.70868   -9184.1447   0.16035814 
   31200    273.80981   -22.247962    24479.211   -8510.2635    652.12386   -9162.3874   0.16138384 
   31250     272.4873   -116.60032    24473.589   -8523.8036    648.97408   -9172.7776   0.16123975 
   31300    270.79753   -35.212753     24477.87   -8494.0854    644.94961    -9139.035   0.17605346 
   31350    287.64499     64.09844    24481.485   -8485.8135    685.07464   -9170.8882   0.15949309 
   31400    278.46561   -20.139385    24482.983   -8493.9579    663.21241   -9157.1703     0.166019 
   31450    268.20305    30.933109    24477.609   -8529.3322    638.77041   -9168.1026   0.16220489 
   31500    269.11503    40.125455    24462.075   -8534.2478    640.94245   -9175.1903   0.14898944 
   31550    283.39022    104.69238    24466.799   -8516.7335    674.94119   -9191.6747   0.15287962 
   31600    274.73029   -42.366267    24479.476   -8506.9956    654.31613   -9161.3117   0.16151327 
   31650    277.83681    86.115065    24481.731   -8531.0048    661.71483   -9192.7196   0.14707947 
   31700    275.86562    41.196046    24489.975   -8523.1879     657.0201    -9180.208   0.14446252 
   31750    265.76112    11.047543    24489.342   -8507.7119    632.95456   -9140.6664   0.16263504 
   31800    281.77917    43.754671    24488.152   -8505.0955    671.10421   -9176.1997   0.15298858 
   31850    273.06637   -54.149586    24486.519   -8499.7266    650.35322   -9150.0799   0.15600624 
   31900    271.41162   -41.487619    24477.954   -8530.5896    646.41216   -9177.0017   0.15446195 
   31950    260.42421    -15.43277    24476.573   -8540.7528    620.24381   -9160.9966   0.16002283 
   32000    274.78561    53.262332    24471.651   -8546.2097    654.44788   -9200.6576   0.15074692 
   32050     270.1576    41.931495    24455.081    -8570.957    643.42551   -9214.3825     0.149637 
   32100    263.94115   -52.261475    24457.719   -8539.2457    628.61998   -9167.8657   0.17035232 
   32150     264.1911    33.155193    24459.289   -8559.4158    629.21529   -9188.6311   0.15469996 
   32200    274.51712   -44.698813    24463.565    -8554.106    653.80844   -9207.9144   0.16350906 
   32250    266.84471    3.7322768     24455.57   -8560.8909    635.53531   -9196.4262   0.15600892 
   32300    264.69447   -58.263641    24452.692   -8567.8672    630.41414   -9198.2813   0.15664542 
   32350    265.76597   -15.346583    24459.403   -8574.4584    632.96611   -9207.4245   0.14562728 
   32400    259.53106    19.170181     24471.98   -8520.4237    618.11662   -9138.5403   0.16586059 
   32450    265.79118   -2.5563342     24465.59   -8554.6931    633.02613   -9187.7192   0.15783591 
   32500     267.2092     61.89861    24454.416   -8579.8622     636.4034   -9216.2657   0.14643056 
   32550     276.9232   -5.0282558    24469.579   -8524.8557     659.5389   -9184.3946   0.15590932 
   32600     270.6615    11.323224    24472.402   -8517.3936    644.62563   -9162.0192   0.16050514 
   32650    271.48052    22.720709    24485.467      -8518.8    646.57627   -9165.3762   0.16529367 
   32700      265.748   -88.538544    24475.951   -8514.5874     632.9233   -9147.5107   0.16520438 
   32750    262.08777    3.7413215    24472.008   -8545.0046    624.20584   -9169.2105    0.1626108 
   32800    271.45379    45.090378    24465.449   -8542.6993     646.5126   -9189.2119   0.15799005 
   32850    276.54964    10.254079    24462.677   -8497.1152    658.64923   -9155.7644   0.16668994 
   32900    280.19179    60.701694    24469.255   -8512.0292    667.32361   -9179.3528   0.15877101 
   32950    271.29191   -58.481177    24466.429   -8529.5977    646.12706   -9175.7247   0.17499307 
   33000    271.85446   -13.549295    24440.161   -8538.8291    647.46687    -9186.296   0.15869258 
   33050    274.64718    23.291611    24448.638   -8533.5473    654.11819   -9187.6655   0.16355803 
   33100    267.91772   -3.4611397    24447.476   -8553.1119    638.09085   -9191.2027   0.16042089 
   33150     265.8938    -85.95258    24457.751   -8540.9696    633.27056   -9174.2402   0.17503118 
   33200    269.33893    54.999848    24459.831    -8538.988     641.4757   -9180.4637   0.15712673 
   33250    260.55821    17.256784     24469.21   -8552.2352    620.56294   -9172.7981   0.15005439 
   33300    264.34869  -0.25259576    24468.099   -8555.1136    629.59061   -9184.7042   0.17102101 
   33350    269.88401    62.688474    24481.516   -8514.2909    642.77391   -9157.0648   0.15878056 
   33400    271.72543   -10.757875    24483.366   -8532.5402    647.15955   -9179.6998   0.16606532 
   33450    258.80783   -43.865503    24466.805   -8558.4286    616.39413   -9174.8227   0.16027528 
   33500    257.27439    6.2555469    24475.334   -8568.6185    612.74199   -9181.3605   0.15849081 
   33550    267.97625   -36.952703    24461.092   -8578.0277    638.23026   -9216.2579   0.14295186 
   33600    260.09367   -92.168618    24471.351   -8530.4882    619.45656   -9149.9448   0.18609048 
   33650    258.25168   -42.683251    24463.161   -8557.2941    615.06957   -9172.3637   0.15182143 
   33700    262.99774    9.3804613    24463.233    -8537.621    626.37311   -9163.9941   0.17629984 
   33750    267.53432   -5.8011842    24469.685   -8543.2258    637.17773   -9180.4035   0.15950809 
   33800    272.90562    19.487467    24453.742   -8526.9452    649.97036   -9176.9156   0.16681196 
   33850    274.35661   -5.0549176    24461.608   -8491.8769    653.42614   -9145.3031   0.17449656 
   33900    275.98144   -34.096842    24481.247   -8502.0258    657.29594   -9159.3217   0.16857975 
   33950    273.55147   0.56246093    24477.997   -8501.1948    651.50858   -9152.7034   0.17141729 
   34000    273.39369   -13.873119     24461.64   -8523.7773    651.13279   -9174.9101   0.16457374 
   34050    262.71499    55.918849    24456.265   -8561.8955    625.69967   -9187.5951    0.1657767 
   34100    256.51519    66.962542    24446.098   -8555.0172    610.93383    -9165.951    0.1654152 
   34150     262.9972   -85.621883    24453.492   -8547.3328    626.37182   -9173.7046   0.17046287 
   34200    264.83103    11.229218    24453.416    -8544.955     630.7394   -9175.6944   0.16443049 
   34250    268.38477   -54.007878    24451.577   -8533.5119    639.20322   -9172.7151   0.17183399 
   34300    268.89357   -19.404269    24452.077   -8532.5966      640.415   -9173.0116   0.15971821 
   34350    263.66273   -45.277851    24451.715   -8558.3652    627.95688   -9186.3221   0.17251339 
   34400    272.84648   -5.8130508     24453.49   -8564.2132    649.82952   -9214.0427   0.14906741 
   34450    266.51073   -28.770267    24447.003   -8545.9809    634.73986   -9180.7207   0.15507009 
   34500    258.73387    33.491032    24445.678   -8543.2477    616.21799   -9159.4657   0.16702898 
   34550    273.36361    59.130867    24456.244   -8510.1733    651.06115   -9161.2345   0.15799856 
   34600    287.69629    94.089743    24460.953   -8458.3982    685.19683    -9143.595   0.16908851 
   34650    285.90239    37.935441    24480.637   -8477.8909    680.92435   -9158.8153   0.17381737 
   34700    268.01617   -35.932949    24469.686   -8518.3036    638.32533   -9156.6289   0.17077958 
   34750    276.55665    71.292771    24454.969   -8529.1874     658.6659   -9187.8533   0.15885451 
   34800    266.15995    65.575065    24445.546   -8539.1993    633.90444   -9173.1038   0.17012126 
   34850    269.00379    46.493233    24453.677   -8529.3723    640.67751   -9170.0498   0.15571247 
   34900    265.45701    23.720974     24455.04   -8525.1893    632.23026   -9157.4196   0.18067529 
   34950    271.80103   -67.939269    24450.975    -8538.134    647.33961   -9185.4736   0.15604607 
   35000    273.56971    -58.65374    24455.164   -8520.1167      651.552   -9171.6687   0.17667434 
   35050    271.76575   -86.595599    24456.311   -8548.4277    647.25559   -9195.6833   0.15961342 
   35100    276.97222    95.048529    24457.245   -8502.9093    659.65565    -9162.565   0.16064149 
   35150    267.25927   -75.359726    24453.464   -8514.5691    636.52265   -9151.0917   0.17429974 
   35200     267.2613   -11.743453    24451.703    -8537.527    636.52748   -9174.0545    0.1676515 
   35250    280.91515    88.360298    24458.356   -8527.6965    669.04642    -9196.743   0.14904457 
   35300    278.18791     31.73466    24474.993   -8535.2904    662.55102   -9197.8415   0.15584744 
   35350    272.76344     43.21195    24487.584   -8529.1751    649.63175   -9178.8068   0.15156697 
   35400     267.1737    40.090733    24472.918   -8539.9008    636.31884   -9176.2196   0.15799434 
   35450    261.04748   -153.39712    24477.966   -8532.7603    621.72823   -9154.4885   0.17513515 
   35500    280.27837    67.958319    24460.129   -8536.3587    667.52981   -9203.8885   0.14373799 
   35550    270.57122    19.988787    24451.405   -8542.7973     644.4106   -9187.2079   0.16725068 
   35600    278.39978    66.892883    24468.063   -8518.1702    663.05564   -9181.2258   0.16111502 
   35650    276.92118    39.789857    24457.914   -8522.6945    659.53409   -9182.2286   0.16211743 
   35700    277.55476    20.262409    24461.743   -8518.3322    661.04307   -9179.3752    0.1661599 
   35750    288.91549    31.874554     24487.69   -8501.1091    688.10054   -9189.2097   0.15787177 
   35800    281.09767    3.9131379    24478.302   -8479.5549    669.48111    -9149.036   0.16962554 
   35850    283.47055   -136.79888    24489.396    -8482.527    675.13253   -9157.6595   0.18206985 
   35900    275.88811     -25.4187     24485.32   -8475.9408    657.07367   -9133.0144   0.16551678 
   35950    272.37428      64.8901      24482.1    -8502.909     648.7049   -9151.6139   0.16915503 
   36000    265.97678   -1.5683971    24459.302   -8538.7037    633.46817   -9172.1719   0.16139227 
   36050    267.30337    -48.50421    24460.301   -8532.1976    636.62769   -9168.8253   0.16055382 
   36100    259.06976   -102.26111    24466.848   -8525.0012    617.01795   -9142.0191   0.17514467 
   36150     268.5167    50.704228    24479.462   -8518.7018    639.51741   -9158.2192   0.15662066 
   36200    279.20996    57.709593    24477.901   -8521.1835    664.98521   -9186.1687   0.16073761 
   36250    268.72144    49.385123      24475.6   -8536.4139    640.00506    -9176.419   0.16043728 
   36300    261.23362     5.997771    24470.071   -8585.9926    622.17156   -9208.1642   0.14802894 
   36350    270.21032    44.760526    24469.403   -8532.1028    643.55105   -9175.6539   0.15046374 
   36400    269.23692   -18.111196     24481.45   -8561.5935    641.23275   -9202.8263    0.1592854 
   36450    269.75468   -61.011151    24485.619   -8528.1159    642.46588   -9170.5818   0.15078454 
   36500    277.58734     32.26948     24481.42   -8525.0274    661.12066   -9186.1481   0.16342983 
   36550    271.83182    22.502842    24475.743   -8516.7412    647.41294   -9164.1541   0.15926112 
   36600    267.41153   -14.369404    24476.995   -8523.5005    636.88527   -9160.3858   0.15846759 
   36650    280.18342    12.698507    24483.306   -8511.6238    667.30367   -9178.9275   0.16019768 
   36700    282.74027   -1.5179197      24482.5   -8510.4889    673.39324   -9183.8822   0.15575943 
   36750    264.11271   -69.058652    24474.528    -8534.476    629.02858   -9163.5045   0.16289708 
   36800    255.05932    41.030951    24461.168   -8560.7471    607.46643   -9168.2135   0.15119168 
   36850    260.82409    41.206203    24459.957   -8574.4519    621.19619   -9195.6481   0.14936259 
   36900    274.95514    18.887712    24455.508   -8557.2866    654.85164   -9212.1382   0.14907334 
   36950    269.16374   -35.417376    24465.336   -8545.1693    641.05847   -9186.2277   0.16059427 
   37000    268.60527    72.926749    24457.724   -8555.9775    639.72836   -9195.7058   0.14005544 
   37050    264.41076   -2.4878923    24453.418   -8532.3245    629.73844   -9162.0629   0.17244033 
   37100    273.43401    24.901589     24460.65   -8546.4291    651.22882   -9197.6579   0.15101276 
   37150    271.19085    58.383222    24453.317   -8527.8738    645.88636   -9173.7601   0.16494731 
   37200    277.12658   -40.277691    24451.606   -8527.4102    660.02331   -9187.4336   0.16505813 
   37250    269.54533   -28.685247     24440.85   -8536.7354    641.96727   -9178.7027   0.15754921 
   37300    274.46315   -46.813278    24440.286   -8562.7927     653.6799   -9216.4726   0.16153617 
   37350    275.74676    53.056603     24445.13   -8523.2595    656.73702   -9179.9966   0.16413309 
   37400    266.94382   -26.843295    24437.214   -8542.0284    635.77134   -9177.7998     0.164164 
   37450    272.12926    12.161239    24439.466   -8520.5097    648.12134    -9168.631   0.16723129 
   37500    273.66318    84.076742    24442.251   -8538.1616    651.77462   -9189.9362   0.15870621 
   37550    265.66961     15.23709    24446.999   -8534.2594     632.7366   -9166.9959   0.16159292 
   37600    262.33683    32.593233    24437.686   -8556.8166    624.79902   -9181.6156     0.168349 
   37650    270.24674   -55.633029    24446.339   -8534.3881     643.6378   -9178.0259   0.15353027 
   37700    267.65545   -21.057756    24450.004   -8559.2914     637.4662   -9196.7576   0.16504745 
   37750    251.86749   -67.420209    24444.324   -8596.4795    599.86455   -9196.3441    0.1561635 
   37800    251.57279   -157.22357    24437.409   -8590.9098    599.16268   -9190.0725   0.15490606 
   37850    255.40995   -74.547374    24442.737   -8578.8336    608.30151   -9187.1351    0.1599081 
   37900    255.72912   -85.811978    24443.853    -8577.019    609.06167   -9186.0806   0.16497324 
   37950    261.91143    41.164733    24439.911    -8553.571    623.78588   -9177.3569   0.15905763 
   38000    274.47599   -20.173071    24449.904   -8500.9555    653.71046    -9154.666   0.17528258 
   38050    282.98512   -2.2926905    24470.503   -8508.0332    673.97639   -9182.0095   0.16822834 
   38100    273.65637   -23.896524    24455.003   -8523.6019    651.75841   -9175.3603   0.15863154 
   38150     271.3003   -54.868884    24460.558   -8516.1273    646.14704   -9162.2743   0.17927047 
   38200    271.14386    90.874174     24465.89   -8496.6009    645.77444   -9142.3753   0.15743513 
   38250    264.03566   -20.870835    24463.078   -8533.9748    628.84508   -9162.8199   0.17087512 
   38300    269.08968    82.493407    24480.802   -8485.3132    640.88208   -9126.1953   0.17505539 
   38350    268.72493    9.7479268    24496.082   -8530.6839    640.01335   -9170.6972   0.15257292 
[...]
   90750     277.7434    122.31057    24462.079   -8514.6974    661.49235   -9176.1897   0.16486604 
   90800     268.7262   -20.648805    24466.591   -8526.2811    640.01639   -9166.2975   0.15709541 
   90850    278.80123    -73.02179    24457.805   -8510.8672    664.01176   -9174.8789   0.15996212 
   90900    271.95808    70.418925    24462.094   -8532.2726    647.71364   -9179.9862    0.1656127 
   90950    261.76049   -43.738941    24461.966   -8547.4994    623.42637   -9170.9257   0.16348462 
   91000    252.22044   -8.8957195    24446.639   -8585.9647    600.70515   -9186.6699   0.16782945 
   91050    250.50595   -106.26536    24430.861   -8615.8455    596.62182   -9212.4673   0.15115253 
   91100    249.66176    24.169433    24433.381   -8610.9217    594.61123   -9205.5329   0.15535499 
   91150     263.6629    48.400084    24439.287   -8586.9596    627.95729   -9214.9169   0.15119516 
   91200     261.6922    1.0670377    24450.959    -8575.969    623.26373   -9199.2328   0.15401217 
   91250    266.78785    47.975408    24465.843   -8550.4772    635.39987    -9185.877   0.14882065 
   91300    275.66218    21.204886    24471.832   -8537.0394    656.53558    -9193.575   0.15983796 
   91350    262.00623   -59.304032    24466.272   -8537.6974    624.01165   -9161.7091   0.15747327 
   91400    264.99736    1.1015688    24458.643   -8521.9578    631.13553   -9153.0934   0.16146189 
   91450    269.52684    42.553554    24469.332   -8500.2602    641.92324   -9142.1835   0.16730119 
   91500    277.11121   -27.318338    24484.333   -8447.3761    659.98669   -9107.3628   0.17180987 
   91550    271.03515   -33.244167    24474.832    -8494.992    645.51553   -9140.5075   0.17715866 
   91600    273.54941   -43.028088    24467.669   -8506.5995    651.50366   -9158.1032   0.16054992 
   91650     266.8934   -13.999078    24459.393   -8532.4999    635.65128   -9168.1512    0.1683872 
   91700    269.74764    23.134886    24452.205    -8534.103    642.44912   -9176.5522    0.1563475 
   91750    269.27813      99.2908     24460.03   -8515.9071    641.33089   -9157.2379   0.16833678 
   91800    271.84689   -2.4852837    24458.186   -8517.9613    647.44882   -9165.4101   0.16124073 
   91850    279.67891    20.268364    24464.816   -8505.4466     666.1021   -9171.5487   0.15965551 
   91900    275.82197    17.540939    24461.013   -8493.5116    656.91615   -9150.4278   0.16180614 
   91950     277.0582    120.09136    24465.894   -8480.4252    659.86043   -9140.2857   0.16211662 
   92000     266.1936   -39.704721    24451.003    -8549.703    633.98458   -9183.6876   0.15741049 
   92050    274.36751    23.298079     24468.79   -8501.7146    653.45212   -9155.1667   0.16422934 
   92100    271.97647    47.387364    24476.571   -8509.2941    647.75745   -9157.0515   0.17092725 
   92150    276.27453    23.358646    24471.807   -8499.2554      657.994   -9157.2494   0.16846485 
   92200    264.11064   -143.39268    24470.076   -8519.0011    629.02365   -9148.0248   0.18172651 
   92250    279.78302     10.40206    24480.875   -8483.1434    666.35005   -9149.4934   0.17070807 
   92300    274.18328    46.898507    24493.946   -8486.6423    653.01332   -9139.6556   0.17608159 
   92350    272.11339   0.70612199    24468.544   -8510.5466    648.08353   -9158.6302   0.16179564 
   92400    283.97469    19.461413    24462.949   -8504.7639    676.33322   -9181.0971    0.1656483 
   92450     266.7403    76.303298    24460.723    -8509.968    635.28662   -9145.2546   0.16350428 
   92500    276.12009     29.69289    24484.864   -8497.5058    657.62618    -9155.132   0.16919091 
   92550    284.00468     47.42786    24482.126   -8497.6857    676.40464   -9174.0903   0.15432068 
   92600    291.57445    71.111852    24479.741   -8465.0781    694.43331   -9159.5114   0.16437198 
   92650    280.01861    13.381604     24474.32   -8522.4011    666.91115   -9189.3123   0.15978037 
   92700    273.02162   -39.902211    24443.771   -8525.1223    650.24664    -9175.369   0.16976106 
   92750    261.44539   -69.713204    24427.294   -8550.6443    622.67591   -9173.3202   0.16980661 
   92800    273.19613    56.357171    24438.428   -8535.1843    650.66226   -9185.8465   0.16386032 
   92850      261.503   -0.9375507    24432.109   -8552.3381    622.81312   -9175.1512   0.16619684 
   92900     268.4238     45.02317    24435.221   -8562.6895    639.29616   -9201.9856   0.15379605 
   92950    269.53274   -12.141381      24434.3   -8556.3873    641.93728   -9198.3245   0.16830112 
   93000    264.91253    36.081224    24435.862   -8546.6012    630.93349   -9177.5347    0.1615654 
   93050    253.76934    37.922207    24428.135   -8550.4619    604.39411    -9154.856   0.16477961 
   93100    268.34356    125.43278    24443.991   -8516.0536    639.10506   -9155.1586   0.15498814 
   93150    278.55785   -41.205422    24445.972   -8545.9872     663.4321   -9209.4193   0.16630875 
   93200    268.52176   -34.028324    24437.952   -8553.9692    639.52947   -9193.4987   0.15407313 
   93250    275.24673   -29.557386    24427.833   -8548.3154    655.54611   -9203.8615   0.16319087 
   93300    257.17977   -59.403066    24426.342    -8556.888    612.51662   -9169.4046   0.17170416 
   93350    255.68262   -105.04564    24410.731   -8582.1641    608.95092    -9191.115   0.15862776 
   93400      261.369   -5.5335241    24412.771   -8586.7267    622.49397   -9209.2207    0.1642254 
   93450    249.91781   -11.253617    24427.051   -8578.9872    595.22106   -9174.2083   0.16774284 
   93500    251.33003    23.686283    24431.457   -8573.5302    598.58451   -9172.1147   0.16321814 
   93550    278.65918    56.515658     24452.25   -8536.8279    663.67345   -9200.5014   0.15436032 
   93600    283.07371   -33.255477    24448.087   -8538.9103    674.18738   -9213.0977   0.15993428 
   93650    275.02165   -30.619998    24448.918   -8542.9748    655.01005   -9197.9848   0.16243096 
   93700    260.81725   -9.6651295    24435.801   -8559.0571    621.17991    -9180.237   0.17144184 
   93750    257.62084    39.648987    24436.065   -8565.0059     613.5671    -9178.573   0.15678737 
   93800    259.54284   -91.334077    24439.835   -8533.2163    618.14467    -9151.361   0.18180273 
   93850    259.76012    29.721688    24437.012   -8579.9304    618.66216   -9198.5926   0.15889619 
   93900    260.09038   -41.076711    24426.457   -8576.8467    619.44872   -9196.2954   0.16448304 
   93950    257.58635    43.384143    24422.547   -8559.3568    613.48498   -9172.8417   0.16744668 
   94000    270.74063    10.673688    24432.185   -8521.4576    644.81409   -9166.2717   0.17167194 
   94050    277.17924   0.86026558    24445.134   -8511.8301    660.14872   -9171.9788   0.16674654 
   94100    275.05514   -11.421076    24460.237   -8493.6595    655.08982   -9148.7493   0.17493634 
   94150    265.15667    1.3961151    24458.665   -8499.4593    631.51494   -9130.9742   0.17351578 
   94200    267.69374    19.061672    24465.752   -8505.3895    637.55741   -9142.9469   0.16281121 
   94250    277.40142    -25.40768    24445.977   -8522.2617    660.67786   -9182.9396   0.16566191 
   94300    281.86966    12.587959    24454.236   -8494.7679    671.31972   -9166.0876   0.16418846 
   94350    267.19084    90.352377      24440.4   -8530.5012    636.35968   -9166.8608   0.15865328 
   94400    276.27305    56.127891    24455.813   -8485.8912    657.99046   -9143.8817   0.16976307 
   94450    290.04104     44.96073     24479.02   -8477.6465    690.78123   -9168.4278   0.16519765 
   94500    284.14668   -7.6183723    24461.465   -8494.8796    676.74284   -9171.6224    0.1621835 
   94550    263.36347     10.89809    24449.713   -8527.7339    627.24416    -9154.978   0.16067787 
   94600    261.73564    25.962897    24451.108   -8522.7326    623.36719   -9146.0998   0.16512747 
   94650    261.28389   -97.108014    24453.095   -8539.5337    622.29127    -9161.825   0.17149953 
   94700     272.2663   -3.8765714    24447.441   -8540.3649    648.44773   -9188.8126   0.15254969 
   94750     266.1583   -91.723874    24444.915    -8539.537     633.9005   -9173.4375   0.16175823 
   94800    273.03158    70.609998    24436.882   -8527.0747    650.27037   -9177.3451   0.16216874 
   94850    270.96337    20.062736    24431.112   -8556.1544    645.34457    -9201.499   0.15110061 
   94900    266.67148    98.085387    24443.175   -8550.6593    635.12274    -9185.782    0.1605277 
   94950    264.83395    81.507691    24445.174   -8531.2977    630.74635   -9162.0441   0.15855266 
   95000    271.98059    51.117106    24453.663   -8551.5139    647.76726   -9199.2812   0.15430435 
   95050    277.31135   -47.624761    24463.978   -8540.2781    660.46334   -9200.7414   0.15416422 
   95100     277.8043   -19.576454     24460.07   -8503.1046    661.63741    -9164.742   0.16370529 
   95150    274.71406    -23.80117    24464.974      -8538.2    654.27747   -9192.4774    0.1582305 
   95200    270.76295    11.542996    24461.811   -8533.4321    644.86725   -9178.2994   0.16392695 
   95250    273.21383    2.2164221    24469.494   -8529.5365    650.70444   -9180.2409   0.15689855 
   95300    272.25085    7.7575134    24465.754   -8515.4083    648.41093   -9163.8192   0.16486378 
   95350    273.96462    23.119967    24465.237   -8533.8373    652.49255   -9186.3298   0.15515612 
   95400    270.02745    63.891045    24455.374    -8521.714    643.11552   -9164.8295   0.16211584 
   95450    283.41262    135.75536    24467.509   -8508.5421    674.99455   -9183.5366   0.16368231 
   95500     277.8545   -44.861089    24481.458   -8494.1674    661.75695   -9155.9244    0.1706275 
   95550    282.59547    26.993707    24474.506   -8508.6683    673.04837   -9181.7167   0.16285933 
   95600    276.75901    -31.94705    24470.764   -8487.9513    659.14787   -9147.0992   0.16674736 
   95650    269.70634   -68.542453    24464.073   -8526.6943    642.35075    -9169.045   0.15683778 
   95700    274.34734   -55.063834    24457.238   -8538.7227    653.40408   -9192.1267   0.16204351 
   95750    265.39203     10.00088    24453.626   -8519.0077    632.07551   -9151.0832    0.1724534 
   95800    271.27386    67.461066    24457.882   -8510.8303    646.08407   -9156.9143   0.16189759 
   95850    275.44537   -11.483401    24459.034    -8526.236    656.01922   -9182.2552   0.16711454 
   95900    266.17673    10.101519    24463.754   -8514.4407     633.9444   -9148.3851   0.16816861 
   95950    270.21594    71.026196     24476.46   -8522.3534    643.56446   -9165.9179   0.16280122 
   96000    272.95126    16.679542    24474.172   -8501.3826    650.07906   -9151.4616   0.17355233 
   96050    284.08689    2.9387879    24482.917   -8485.3118    676.60045   -9161.9123   0.16339373 
   96100    282.00259   -51.248365    24477.771   -8492.6083    671.63633   -9164.2447   0.16391556 
   96150    270.80955   -2.2661213    24471.649   -8499.3962    644.97822   -9144.3745   0.17002007 
   96200    266.35327     61.62461    24460.988   -8525.8192    634.36486   -9160.1841   0.16401185 
   96250    267.94628    49.697094    24453.144    -8531.379    638.15889   -9169.5379   0.16223924 
   96300    278.02053     59.40424    24447.958   -8529.6016    662.15238    -9191.754   0.15697775 
   96350    270.24198    60.049991    24444.888   -8532.7604    643.62647   -9176.3869   0.16048967 
   96400    272.40517    16.096438    24453.202   -8528.5118    648.77847   -9177.2903   0.16354818 
   96450     267.1312   -18.058423    24461.974   -8536.4482    636.21763   -9172.6658   0.15651876 
   96500    274.43087    55.487815    24454.011   -8510.0695      653.603   -9163.6725   0.16647003 
   96550    263.28023    27.685957    24441.749     -8548.95     627.0459   -9175.9959   0.16104347 
   96600    266.28196   -38.688248    24442.816   -8521.8508    634.19502   -9156.0459   0.16389504 
   96650    270.85762   -33.180539      24443.4   -8543.1944    645.09272   -9188.2871   0.15807526 
   96700    268.22082   -70.606901    24444.664   -8534.4794    638.81274   -9173.2921    0.1682412 
   96750    273.25723    30.584566    24457.986   -8508.1201     650.8078   -9158.9279   0.15892159 
   96800    258.59162    19.913894     24455.21   -8547.3612     615.8792   -9163.2404   0.16623045 
   96850    273.82276    41.144672    24459.981   -8518.6238     652.1547   -9170.7785   0.15642702 
   96900    280.75912     95.26548    24460.393   -8520.6758     668.6748   -9189.3506   0.15625547 
   96950    275.80997    53.227487    24462.936   -8538.7518    656.88757   -9195.6394   0.15847738 
   97000        272.2    16.470316    24451.044   -8550.2629    648.28982   -9198.5528   0.15470847 
   97050    267.69764    18.292634     24459.89   -8534.4886     637.5667   -9172.0553   0.16725694 
   97100    273.48522   -56.512866    24465.341   -8530.1155    651.35079   -9181.4663   0.16364942 
   97150    268.43511    17.585684    24481.435   -8502.3768     639.3231   -9141.6999     0.165017 
   97200    284.41856    -18.57818    24475.415   -8504.9514    677.39036   -9182.3418   0.17511938 
   97250    283.05668    41.504306    24493.595   -8480.2512    674.14682    -9154.398   0.16477239 
   97300    267.35282   -88.961453    24473.898   -8497.3346    636.74546   -9134.0801   0.17825174 
   97350     263.5075   -149.74885    24460.326    -8529.474    627.58719   -9157.0612   0.18272463 
   97400    262.08993   -25.079284    24443.086   -8542.7693      624.211   -9166.9803   0.15986391 
   97450    256.96671   -54.375511    24437.552   -8548.0368    612.00919    -9160.046   0.17534572 
   97500    258.49541    -74.91368    24446.365   -8529.8145    615.65005   -9145.4646   0.17286169 
   97550    266.76438   -68.150506    24462.877   -8503.6887    635.34399   -9139.0326   0.16989161 
   97600    275.54261    73.470702      24466.4   -8498.3257     656.2508   -9154.5765   0.17149589 
   97650    276.30419   -13.775112    24475.399   -8505.7489    658.06462   -9163.8135   0.17069966 
   97700    275.44071   -3.7693255    24477.823    -8498.633     656.0081   -9154.6411   0.17394151 
   97750    269.51622   -29.800539     24472.91   -8514.1261    641.89795    -9156.024   0.17422858 
   97800    268.02946   -65.518091    24479.426   -8518.1443    638.35698   -9156.5013   0.16070579 
   97850     266.2774    8.5800887    24481.633   -8513.2526    634.18416   -9147.4368   0.17424486 
   97900    271.98605   -73.243475    24482.175   -8512.6171    647.78027   -9160.3974   0.16477673 
   97950    271.60989   -57.102882    24462.806   -8545.7469    646.88438   -9192.6312   0.16253186 
   98000      268.359   -50.152141    24467.601   -8555.3397    639.14185   -9194.4816   0.15754402 
   98050    259.42318   -12.387303    24461.093   -8545.9997    617.85969   -9163.8594   0.15951008 
   98100    263.33201    28.055164     24469.73   -8561.1605    627.16921   -9188.3297   0.14665476 
   98150    264.37556    41.884356    24464.795     -8548.14     629.6546   -9177.7946   0.15500413 
   98200    271.06159    -49.96385    24476.415   -8531.7272    645.57852   -9177.3057   0.15424735 
   98250    269.77006    49.561782    24477.932    -8500.519    642.50252   -9143.0215   0.17100512 
   98300    276.80807   -35.771391    24485.477   -8526.5032    659.26471   -9185.7679   0.16442325 
   98350    270.36766    8.1205514    24480.141   -8539.1195    643.92579   -9183.0453   0.15041972 
   98400    266.03966   -92.737703    24468.578   -8566.7321    633.61793     -9200.35   0.16310941 
   98450    275.88325    13.496074     24465.55   -8555.0229     657.0621    -9212.085   0.14456108 
   98500    276.83537    42.346158    24465.151   -8524.5823    659.32973   -9183.9121   0.15167146 
   98550    258.97828     -73.3363    24461.845   -8546.9608    616.80008   -9163.7608   0.16159507 
   98600    268.00429   -25.438563    24467.151   -8537.1952    638.29703   -9175.4922   0.15143035 
   98650    276.72401     73.85781    24460.257    -8522.727    659.06451   -9181.7915   0.15093747 
   98700    276.97935   -56.923383    24465.743   -8499.2265    659.67264   -9158.8991   0.16655448 
   98750    277.13228   -49.736311    24477.582    -8522.903    660.03688   -9182.9399   0.15410606 
   98800    278.87001    62.862769    24477.623   -8522.3674    664.17557   -9186.5429   0.15476404 
   98850    262.54674    22.534222    24473.178   -8537.7007    625.29897   -9162.9997   0.16715278 
   98900    260.48334    -14.69061    24467.294   -8537.0359    620.38463   -9157.4205   0.15888449 
   98950    259.29012    6.0601872    24461.347   -8554.7984    617.54279   -9172.3412    0.1635136 
   99000    272.00638    32.430583    24469.976   -8514.6634    647.82868   -9162.4921   0.15919644 
   99050    262.85188   -62.416722     24459.84   -8554.9274    626.02572   -9180.9532   0.16515929 
   99100    273.01086   -36.691897    24452.808   -8540.2308    650.22101   -9190.4518   0.15747842 
   99150    275.13815   -45.886892    24456.782   -8530.4136    655.28752   -9185.7011   0.15891102 
   99200    273.18633    1.9721739    24461.489   -8524.0067    650.63894   -9174.6457   0.16377127 
   99250    289.98498    34.541424    24464.945   -8494.6532    690.64773   -9185.3009    0.1622566 
   99300    276.39557    25.111129    24463.503   -8497.2797    658.28228    -9155.562   0.16463926 
   99350    275.15062    15.736776    24479.385   -8504.0485    655.31722   -9159.3658   0.16041947 
   99400    269.36503    4.6353001    24467.991   -8499.9555    641.53787   -9141.4933   0.17129128 
   99450    284.84689     88.75641    24471.291    -8490.754    678.41049   -9169.1645   0.16581612 
   99500    261.84798     37.22539    24472.226   -8508.6775    623.63475   -9132.3123   0.17728198 
   99550    270.13788    1.0481242    24461.582    -8507.458    643.37853   -9150.8366   0.16157027 
   99600     267.6715   -10.207875    24467.004   -8529.4584    637.50444   -9166.9628   0.16098559 
   99650    268.39852   -6.6842983    24469.086   -8537.2049    639.23596   -9176.4408   0.15788821 
   99700    265.14057   -9.7815526    24454.578   -8535.7144     631.4766    -9167.191   0.16365175 
   99750    266.78128   -12.049589    24461.292   -8528.8859    635.38424   -9164.2701   0.16595766 
   99800    269.65437    48.206231    24465.457   -8536.8229    642.22697   -9179.0499   0.15633928 
   99850    271.53416   -7.3448234    24463.139   -8535.4523    646.70402   -9182.1563   0.15059176 
   99900    267.09618   -113.52454    24450.358   -8550.3838    636.13422    -9186.518   0.16482328 
   99950    274.41063 -0.014733214    24453.855   -8524.2417    653.55481   -9177.7965   0.16530828 
  100000    269.48096    42.002352     24449.59   -8535.8471    641.81396   -9177.6611    0.1523202 
Loop time of 32.468 on 10 procs for 100000 steps with 800 atoms

Performance: 2661.085 ns/day, 0.009 hours/ns, 3079.959 timesteps/s
98.5% CPU use with 10 MPI tasks x no OpenMP threads

MPI task timing breakdown:
Section |  min time  |  avg time  |  max time  |%varavg| %total
---------------------------------------------------------------
Pair    | 19.62      | 22.022     | 23.108     |  20.2 | 67.83
Neigh   | 1.5366     | 1.7237     | 1.8125     |   5.5 |  5.31
Comm    | 5.6698     | 6.8209     | 9.4167     |  39.1 | 21.01
Output  | 0.064861   | 0.069383   | 0.10432    |   4.4 |  0.21
Modify  | 1.3705     | 1.4043     | 1.4498     |   1.7 |  4.33
Other   |            | 0.428      |            |       |  1.32

Nlocal:    80 ave 86 max 75 min
Histogram: 1 1 1 1 2 1 2 0 0 1
Nghost:    582.1 ave 597 max 571 min
Histogram: 2 1 0 2 2 0 1 0 1 1
Neighs:    0 ave 0 max 0 min
Histogram: 10 0 0 0 0 0 0 0 0 0
FullNghs:  2526.8 ave 2745 max 2335 min
Histogram: 1 0 1 1 3 1 2 0 0 1

Total # of neighbors = 25268
Ave neighs/atom = 31.585
Neighbor list builds = 10891
Dangerous builds = 0

# Create data file for import to other simulations
#
write_data          data.ice_box


Total wall time: 0:00:32
