LAMMPS data file via write_data, version 12 Dec 2018, timestep = 100000

800 atoms
1 atom types

-9.5524798604614602e-02 2.4913524798604499e+01 xlo xhi
-1.1940599825639531e-01 3.1141905998256657e+01 ylo yhi
-1.1940599825639531e-01 3.1141905998256657e+01 zlo zhi

Masses

1 18.015

Atoms # atomic

3 1 1.5955795897356966e+00 1.6593696311310548e+00 4.2002043979485437e+00 0 0 0
2 1 2.0653459264701052e-01 3.2533334975603871e+00 2.8406117015249883e+00 0 0 0
56 1 1.5584207295007529e+01 9.1926363721629567e+00 2.1540459916246901e-01 0 0 0
41 1 1.5531802401087043e+01 9.5080457917539718e-02 2.9452536416750981e+00 0 0 0
5 1 4.5319680661291999e+00 1.6985787909412655e+00 1.5313034490573252e+00 0 0 0
22 1 6.2095452298746263e+00 2.9882657867498574e+00 3.1037999481849021e+00 0 0 0
23 1 7.7210165162398550e+00 1.2291397506595854e+00 4.5851304391045797e+00 0 0 0
25 1 1.0770489940469416e+01 1.6968025701408440e+00 1.2156930689622274e+00 0 0 0
42 1 1.2445638125916377e+01 2.9661324016696460e+00 3.0835190470613365e+00 0 0 0
43 1 1.3859153561376333e+01 1.1133976009321842e+00 4.6781212405959636e+00 0 0 0
45 1 1.6890391582975916e+01 1.6075045305335256e+00 1.1730121612192954e+00 0 0 0
421 1 5.6401147478643008e+00 1.5451847778246652e+01 3.2274629379590158e+00 0 0 0
61 1 2.1804648192486834e+01 7.1121791089488795e-02 3.4538222243363363e+00 0 0 0
62 1 1.8918762752914610e+01 2.9950463606617785e+00 2.7106673664720806e+00 0 0 0
63 1 2.0122484771876891e+01 1.4506130646839197e+00 4.4599744465755800e+00 0 0 0
79 1 2.3654610062371678e+01 1.3915898335549658e+01 1.7116352054699326e+00 0 0 0
65 1 2.3597894614302618e+01 1.5212716145961926e+00 1.3751512279837557e+00 0 0 0
57 1 1.5435688740657346e+01 1.2340717987537007e+01 3.0144775444035483e+00 0 0 0
6 1 1.5154715828898395e+00 5.0236432640560258e+00 1.2575134281348690e+00 0 0 0
9 1 3.2468803563461726e+00 6.2221175815415375e+00 3.0534699117006232e+00 0 0 0
75 1 1.8594380482218615e+01 6.1788967752849420e+00 1.5801180277336146e-01 0 0 0
4 1 4.3844239931743214e+00 4.2628999729022095e+00 4.6241753331637261e+00 0 0 0
544 1 2.1354400237079037e+01 1.5401522076806840e+01 5.8459350026927916e+00 0 0 0
96 1 2.7082024658557082e+00 9.2996713904709836e+00 6.0861299242725728e+00 0 0 0
26 1 7.7319424977951465e+00 4.4523329174905673e+00 1.5001551210017159e+00 0 0 0
29 1 9.3935205043257923e+00 6.0502911361821843e+00 3.1847583984703349e+00 0 0 0
39 1 1.0954414357407462e+01 1.4147965564992043e+01 1.5602345722443316e+00 0 0 0
24 1 1.1056534474546828e+01 4.7683503389694639e+00 5.0511956509990021e+00 0 0 0
46 1 1.3857702134630053e+01 4.6270719827794222e+00 1.1648079085011880e+00 0 0 0
44 1 1.7278153046277531e+01 4.6170607625837521e+00 4.3918663233244324e+00 0 0 0
49 1 1.5245189727988677e+01 5.8301128719258051e+00 3.1242925599658706e+00 0 0 0
156 1 2.1753302716524228e+01 9.3744909226305140e+00 5.9280937314623303e+00 0 0 0
66 1 2.0346889076454961e+01 4.8010458926790065e+00 1.1396149462923042e+00 0 0 0
71 1 2.0335922353532588e+01 7.3923801114804863e+00 4.8199228276551445e+00 0 0 0
69 1 2.1857366908322042e+01 6.0117021886232784e+00 2.9033737030583584e+00 0 0 0
64 1 2.3248470672829047e+01 4.4553208955131254e+00 4.6685116042414991e+00 0 0 0
35 1 6.2525779700410560e+00 5.9695565908533670e+00 -4.6513826124140276e-02 0 0 0
11 1 1.2984855181185904e+00 7.7221230762443707e+00 4.5205384924194645e+00 0 0 0
14 1 1.2774126251938556e+00 1.0645637902312890e+01 1.0989095764124177e+00 0 0 0
77 1 2.1285771110786442e+01 1.2735906329620596e+01 2.8672683212344827e+00 0 0 0
13 1 4.8089710562847907e+00 7.5804367391426926e+00 1.3971091430238072e+00 0 0 0
30 1 6.2133080365251514e+00 9.2805762652985493e+00 3.1599345078227570e+00 0 0 0
12 1 4.2143810347244539e+00 1.0859150920222401e+01 4.3811975982694831e+00 0 0 0
31 1 7.4852888771363268e+00 7.4104404709836293e+00 4.7881436571528573e+00 0 0 0
34 1 7.4083407189019201e+00 1.0756948991257969e+01 1.2682567070787085e+00 0 0 0
33 1 1.1037201682080083e+01 7.5870309644718956e+00 1.2887378324155276e+00 0 0 0
32 1 1.0917935110647791e+01 1.0641427684293397e+01 4.4160914908397206e+00 0 0 0
50 1 1.2231262142110689e+01 9.0709546508534142e+00 2.9152603452571664e+00 0 0 0
54 1 1.3873451183425280e+01 1.0704225874937803e+01 1.5702147794654919e+00 0 0 0
51 1 1.4002728484678146e+01 7.9891765938719086e+00 4.5771033997610138e+00 0 0 0
53 1 1.7236162459280830e+01 7.4554470511230804e+00 1.9164614574362164e+00 0 0 0
52 1 1.6667443131790932e+01 1.0824655135822537e+01 5.0472379102095610e+00 0 0 0
59 1 1.6996120038308330e+01 1.3945738468036545e+01 1.5467458897743005e+00 0 0 0
70 1 1.8691270365604453e+01 9.1083657293831042e+00 3.2547096098326427e+00 0 0 0
74 1 2.0117558569375039e+01 1.0790507418758136e+01 1.6889770278278806e+00 0 0 0
60 1 1.2425039343934591e+01 1.2195503015059462e+01 1.8846389037367001e-01 0 0 0
73 1 2.3350265197089808e+01 7.8515828282398212e+00 1.6122852900965077e+00 0 0 0
10 1 2.4885243706265179e+01 9.6144386117401925e+00 3.0716989438363536e+00 -1 0 0
72 1 2.2957778927368025e+01 1.1145361379459146e+01 4.4071520367476529e+00 0 0 0
18 1 8.4444280829446061e-01 1.4212607278179823e+01 4.2888072497967862e+00 0 0 0
17 1 2.4983141119088570e+00 1.2387946637142830e+01 3.1411519157006205e+00 0 0 0
37 1 9.2175038110850576e+00 1.2331237377391632e+01 2.7297416365950142e+00 0 0 0
58 1 1.3704690489342301e+01 1.3359120729665111e+01 4.6609121728757810e+00 0 0 0
19 1 4.0714261968059082e+00 1.4031171671016562e+01 1.6622648730296083e+00 0 0 0
78 1 1.9610503116336140e+01 1.3946070458563351e+01 4.4150435565715025e+00 0 0 0
38 1 7.4466921490203397e+00 1.3645477528516853e+01 4.7115443947804865e+00 0 0 0
441 1 1.2225588936425163e+01 1.5458217162034721e+01 3.2663826947040722e+00 0 0 0
464 1 2.2036530595189543e+01 1.5158651276411303e+01 -7.8265962770103725e-02 0 0 0
128 1 1.5435094475202943e+01 3.1347296952642729e+00 5.8930568993903067e+00 0 0 0
87 1 -2.0312387819731867e-02 7.7966458370019281e-02 5.9874813107106624e+00 0 0 0
76 1 2.1719498952861645e+01 9.3255681340189032e+00 -8.6945280791790508e-02 0 0 0
115 1 5.9282692319737480e+00 5.7782029860628832e+00 6.0341633740612544e+00 0 0 0
88 1 3.1298719877093135e+00 2.3728065120569393e+00 6.1249053794753818e+00 0 0 0
100 1 2.4632938785326928e+01 1.2414782395006327e+01 5.8654111739913590e+00 -1 0 0
524 1 1.5493011774235127e+01 1.5197428274564002e+01 5.8702639135392563e+00 0 0 0
108 1 9.4298923491527891e+00 2.7004474991089720e+00 6.0228965534754133e+00 0 0 0
67 1 1.8842055026354636e+01 4.1094137907147471e-02 2.0387014627787181e-01 0 0 0
27 1 6.0754495856864690e+00 -5.1656155571548804e-02 -2.7753149365032925e-02 0 0 0
68 1 2.1715802800202688e+01 3.0275096438025400e+00 -6.9741456845541450e-02 0 0 0
83 1 1.8682605813814854e+00 1.6280662022253818e+00 1.0487697225576023e+01 0 0 0
481 1 2.4622550466947509e+01 1.4961928930224655e+01 9.1342562655649253e+00 -1 0 0
227 1 1.8915050095384363e+01 -9.2520053626280685e-02 1.2287912868811466e+01 0 0 0
85 1 5.0271259105145321e+00 9.4258274391479913e-01 7.6608118166762393e+00 0 0 0
102 1 6.0896641077117613e+00 2.6561356722733853e+00 9.4402218486328344e+00 0 0 0
103 1 7.8439326929458026e+00 1.3910191645808097e+00 1.0723529551469587e+01 0 0 0
167 1 3.4394989209461690e-01 2.7326287702549951e-01 1.2197686898338540e+01 0 0 0
105 1 1.0881968749349237e+01 1.5577985845233027e+00 7.7890593952835081e+00 0 0 0
122 1 1.2815338253124125e+01 2.9083183413875262e+00 9.1403451536206468e+00 0 0 0
123 1 1.4285419534756464e+01 1.5336882642808343e+00 1.1149274773207766e+01 0 0 0
125 1 1.6855119956571215e+01 1.6566819151118779e+00 7.4896129820467587e+00 0 0 0
142 1 1.8301154181997063e+01 3.0178946741052703e+00 9.2132056430331009e+00 0 0 0
143 1 2.0352205410734822e+01 1.5975715374379718e+00 1.0637850972581173e+01 0 0 0
82 1 -5.6601611300330035e-02 3.1307501498866435e+00 9.1035322327745352e+00 0 0 0
145 1 2.3460828168774608e+01 1.5511243527695222e+00 7.4540898787997740e+00 0 0 0
504 1 8.9784367114949859e+00 1.5412150391441864e+01 6.1763185814051385e+00 0 0 0
86 1 1.6165115870593842e+00 4.2821757711977497e+00 7.4792589167721815e+00 0 0 0
89 1 3.2146708056809445e+00 6.0263774459464772e+00 8.9422886710297611e+00 0 0 0
91 1 1.9081610869990202e+00 7.8202350103816372e+00 1.0365454938539740e+01 0 0 0
84 1 4.8386470151206709e+00 4.1494115297267680e+00 1.0637838171095108e+01 0 0 0
93 1 4.3328707772948620e+00 7.5141316095648811e+00 7.3439155357687431e+00 0 0 0
106 1 7.5707880011421418e+00 4.4651300476221119e+00 7.8377801525636492e+00 0 0 0
109 1 9.3262296165508030e+00 5.8730204194778128e+00 9.7729715054067210e+00 0 0 0
104 1 1.1228164102483335e+01 4.3337987172306036e+00 1.0718627443457807e+01 0 0 0
126 1 1.4037342404651373e+01 4.5300310770020324e+00 7.7550815846030119e+00 0 0 0
158 1 2.0097442155183348e+01 1.3804818863999232e+01 1.0836653857436906e+01 0 0 0
131 1 1.3646395320791108e+01 7.6579474441113806e+00 1.0831290739034428e+01 0 0 0
141 1 2.1791796663065412e+01 2.4520289503940973e-01 8.8922491479092436e+00 0 0 0
124 1 1.7078969019475544e+01 4.9203761372088728e+00 1.0982996113860040e+01 0 0 0
129 1 1.5376503893220939e+01 6.1301586085617110e+00 9.5291190087257949e+00 0 0 0
146 1 1.9994053490073352e+01 4.6260310097406601e+00 7.9297780474259927e+00 0 0 0
151 1 2.0190359469552533e+01 7.7370186040763222e+00 1.0521580495510348e+01 0 0 0
159 1 2.2989044528480470e+01 1.3666714987091114e+01 7.3428997035743508e+00 0 0 0
149 1 2.1694255004101720e+01 6.1972334146618602e+00 9.1480739058669460e+00 0 0 0
144 1 2.3538437554632754e+01 4.9327542889121521e+00 1.0761308290610286e+01 0 0 0
155 1 1.8772613838007338e+01 6.0821881083165792e+00 6.2394681011263220e+00 0 0 0
116 1 9.1848337463166612e+00 9.1424312120371063e+00 6.4915258347049507e+00 0 0 0
94 1 1.2178686365799425e+00 1.0986977837635507e+01 7.6325636522105178e+00 0 0 0
137 1 1.5320536999165999e+01 1.2386409959496646e+01 9.4525942783760311e+00 0 0 0
92 1 4.3268437130380386e+00 1.1074544632760249e+01 1.0563014843592567e+01 0 0 0
110 1 5.7383809150913851e+00 9.0811911569778392e+00 9.1369627137248806e+00 0 0 0
139 1 1.6770990453226421e+01 1.4138276221973575e+01 7.9575433300709904e+00 0 0 0
111 1 7.4566527405619176e+00 7.8243251703345749e+00 1.0976511082347143e+01 0 0 0
114 1 7.2833029650453289e+00 1.0694896808159760e+01 7.4895511477157388e+00 0 0 0
112 1 1.0297057867367856e+01 1.0758241128324284e+01 1.0811998672647338e+01 0 0 0
113 1 1.0620088294750067e+01 7.5764244737821675e+00 8.0834509731823871e+00 0 0 0
130 1 1.2200260907456753e+01 9.2272905904792122e+00 9.3205367003311643e+00 0 0 0
134 1 1.3979024509675799e+01 1.0672996566655929e+01 7.9328676509993006e+00 0 0 0
133 1 1.7180945104984417e+01 7.5513452314714646e+00 7.8224326667296422e+00 0 0 0
132 1 1.6953694336711820e+01 1.1251442331278080e+01 1.1210882852140339e+01 0 0 0
157 1 2.1258127803164577e+01 1.2342245278925311e+01 8.8276453708598712e+00 0 0 0
150 1 1.8416333959063017e+01 9.4549316943792086e+00 9.2918886481070118e+00 0 0 0
154 1 1.9727803139892231e+01 1.0916845584642981e+01 7.5135139143136023e+00 0 0 0
153 1 2.3213522590608569e+01 7.8551432514637902e+00 7.4311393265709045e+00 0 0 0
90 1 -7.7914730557676393e-02 9.2875402519925832e+00 8.9725784384116682e+00 0 0 0
152 1 2.3368587622647063e+01 1.0945777335805076e+01 1.0377008990869816e+01 0 0 0
119 1 1.0947468226528946e+01 1.3895397654382414e+01 7.5310235838991089e+00 0 0 0
97 1 2.6711596125293222e+00 1.2379355474581342e+01 9.1875649781684885e+00 0 0 0
98 1 1.2058327318501374e+00 1.3751050802812360e+01 1.1099327577888852e+01 0 0 0
120 1 5.6282068143550470e+00 1.2454610740508580e+01 6.1577708735506853e+00 0 0 0
138 1 1.3547971336425771e+01 1.4027892364928009e+01 1.1127430609685749e+01 0 0 0
99 1 4.2368604434637422e+00 1.4059152081849001e+01 7.6203959490729813e+00 0 0 0
118 1 7.3631606609250406e+00 1.3975954754523864e+01 1.0655341759415141e+01 0 0 0
117 1 8.7027120640336904e+00 1.2401223021781643e+01 9.1485097623718676e+00 0 0 0
135 1 1.2523161356431086e+01 6.5321774617406927e+00 6.7895495005377375e+00 0 0 0
121 1 1.5631438519321282e+01 2.0176047616378634e-01 9.5558317130891357e+00 0 0 0
95 1 2.4621684399695749e+01 5.8758723032673501e+00 6.1511060030784934e+00 -1 0 0
188 1 9.5706059270167376e+00 2.9085108830054835e+00 1.2081456276371773e+01 0 0 0
236 1 2.1929370718321550e+01 9.1863615197002879e+00 1.2068813465026880e+01 0 0 0
176 1 3.2460002922315327e+00 9.3940513429472627e+00 1.2189980904950966e+01 0 0 0
136 1 1.5651332505040363e+01 9.1530098911644142e+00 6.4984425415590410e+00 0 0 0
624 1 2.1651855467706039e+01 1.5430471053632301e+01 1.2366560569812293e+01 0 0 0
175 1 -4.7554242468088148e-02 6.7613365806181323e+00 1.2054106257260147e+01 0 0 0
228 1 2.1842736732926998e+01 2.9337807146462955e+00 1.2164115507545063e+01 0 0 0
604 1 1.5618516542259885e+01 1.5374402964383659e+01 1.2376029129714965e+01 0 0 0
216 1 1.5322806972956794e+01 9.2882213645124789e+00 1.2374336910587965e+01 0 0 0
200 1 5.8334237525759765e+00 1.2750925224540891e+01 1.2219897752184874e+01 0 0 0
168 1 3.0877535561206355e+00 2.9732286067047973e+00 1.2200494132737445e+01 0 0 0
564 1 2.5820033795535355e+00 1.5347378055215708e+01 1.2249240786796308e+01 0 0 0
180 1 2.4599370896612314e+01 1.2093105451076275e+01 1.2384600084915798e+01 -1 0 0
195 1 6.1578719477076538e+00 5.7951697804371776e+00 1.2331046468791925e+01 0 0 0
140 1 1.2442319713084089e+01 1.1784919708301793e+01 6.1553874238103496e+00 0 0 0
148 1 2.1310154344679169e+01 3.0895198357188218e+00 6.2158519152599370e+00 0 0 0
160 1 1.8217615466188963e+01 1.2533844756754316e+01 6.3730536220408975e+00 0 0 0
163 1 1.5725946103403714e+00 1.5819085097173753e+00 1.6910148207346388e+01 0 0 0
162 1 8.3833512527180548e-02 3.6060606402973767e+00 1.5420385201773161e+01 0 0 0
239 1 2.3098943928249927e+01 1.3684757140758681e+01 1.3867046813845350e+01 0 0 0
165 1 4.6716025793421103e+00 1.3950808975068889e+00 1.3614805063234130e+01 0 0 0
182 1 6.4345950912432031e+00 2.8126618354742501e+00 1.5087597610529032e+01 0 0 0
183 1 7.9204405450331716e+00 9.6798578998460183e-01 1.6573011940058464e+01 0 0 0
215 1 1.2647938315781438e+01 6.2987837667238926e+00 1.2447201816447942e+01 0 0 0
185 1 1.1075497482135674e+01 1.3981945559752795e+00 1.3918715832886855e+01 0 0 0
202 1 1.2633779474923889e+01 2.9498400643153020e+00 1.5509080001218390e+01 0 0 0
203 1 1.4107821988713596e+01 1.3790930206655636e+00 1.7340277754054576e+01 0 0 0
205 1 1.7131308491371076e+01 1.4901553747327967e+00 1.4203716117764898e+01 0 0 0
307 1 1.8508670916308695e+01 1.3278904692197813e-01 1.8482876832176622e+01 0 0 0
208 1 1.5764117745342251e+01 3.2190290488189395e+00 1.2833884144068188e+01 0 0 0
222 1 1.8940926868008461e+01 2.7345305813009220e+00 1.5702977051336017e+01 0 0 0
223 1 2.0769659506260673e+01 1.1409823928906999e+00 1.7426991714973603e+01 0 0 0
237 1 2.1751996442828020e+01 1.2133328488143722e+01 1.5518495327416000e+01 0 0 0
161 1 3.2075241619320245e+00 1.3051176828687908e-01 1.5282392880133164e+01 0 0 0
225 1 2.3616628184399016e+01 1.8867345858929614e+00 1.3918959107278724e+01 0 0 0
166 1 1.1853261353306208e+00 4.9532410353768794e+00 1.3561171525711707e+01 0 0 0
169 1 3.1129808481329624e+00 5.9737230807549073e+00 1.5325030391984248e+01 0 0 0
171 1 1.8489425416725407e+00 7.5734750637815527e+00 1.7019561202371747e+01 0 0 0
164 1 4.8849267775554646e+00 4.0461901257747952e+00 1.7163014869720492e+01 0 0 0
601 1 1.2124259360021551e+01 1.5322762850438544e+01 1.5674794234915220e+01 0 0 0
186 1 8.0718485920468286e+00 4.4042054641227777e+00 1.3705525941312622e+01 0 0 0
189 1 9.3153839055996261e+00 6.0220493142894833e+00 1.5584638172128679e+01 0 0 0
191 1 7.5971400912549960e+00 7.5299928032255004e+00 1.6996210997515625e+01 0 0 0
184 1 1.0972376769965072e+01 4.3771495544104528e+00 1.6884300620291491e+01 0 0 0
193 1 1.0699539419598382e+01 7.7767775472050387e+00 1.4111364206897029e+01 0 0 0
206 1 1.4093729047222061e+01 4.7892596611099902e+00 1.4100786092827386e+01 0 0 0
209 1 1.5776213859207303e+01 6.1958675888348331e+00 1.5768096927243729e+01 0 0 0
204 1 1.7172275538390299e+01 4.2177165362387905e+00 1.7182007442667185e+01 0 0 0
213 1 1.6938689544227806e+01 7.7978755503473840e+00 1.3845677881070724e+01 0 0 0
664 1 9.0567779159537096e+00 1.5330643442640044e+01 1.8586243799830619e+01 0 0 0
226 1 2.0381336298634839e+01 4.5111701156886781e+00 1.3738801572628148e+01 0 0 0
231 1 2.0181800018026085e+01 7.5187903641093978e+00 1.7043853492868379e+01 0 0 0
561 1 2.4724790923434870e+01 1.5192834749671999e+01 1.5505495137096345e+01 -1 0 0
233 1 2.3552736545564802e+01 7.5282857581980034e+00 1.4027254628616593e+01 0 0 0
229 1 2.1992486357195123e+01 6.0556868516613047e+00 1.5508602390885054e+01 0 0 0
224 1 2.3435254412388602e+01 4.6474202047205395e+00 1.7187464287885540e+01 0 0 0
221 1 2.2144588544310285e+01 -5.7062052392523523e-02 1.5211627226783294e+01 0 0 0
174 1 1.1296270443031893e+00 1.0538651514737545e+01 1.3782285084261957e+01 0 0 0
173 1 4.6588370621088062e+00 7.6145123295611556e+00 1.4047231455372337e+01 0 0 0
172 1 4.6446943868122066e+00 1.0739586244154420e+01 1.7141810121308588e+01 0 0 0
190 1 6.0087262979557838e+00 9.4243742394263528e+00 1.5497682960161935e+01 0 0 0
194 1 7.4519339594641458e+00 1.1268819649108192e+01 1.3823978899341610e+01 0 0 0
192 1 1.0957546913451507e+01 1.0776467125391825e+01 1.7272389068916226e+01 0 0 0
581 1 6.3775754065534489e+00 1.5354948432169584e+01 1.5910337410428612e+01 0 0 0
211 1 1.3977671290178611e+01 7.6887005276146088e+00 1.7240745772343075e+01 0 0 0
210 1 1.2348583005003343e+01 9.0681278525020854e+00 1.5736075260194529e+01 0 0 0
214 1 1.3822333549879694e+01 1.0586555886215898e+01 1.4161921774275443e+01 0 0 0
196 1 8.7832511879836712e+00 9.4488878443501498e+00 1.2711073696018989e+01 0 0 0
212 1 1.6862317109086256e+01 1.1299608503523041e+01 1.7566132862997591e+01 0 0 0
230 1 1.8394654710882687e+01 9.4022685697660773e+00 1.5752645164273858e+01 0 0 0
234 1 1.9889010849263620e+01 1.0736538057369195e+01 1.4147915672953223e+01 0 0 0
232 1 2.3295089458597811e+01 1.1000480954074821e+01 1.7328352570655632e+01 0 0 0
170 1 -3.5742462919235350e-02 9.1909579588165684e+00 1.5700972207308965e+01 0 0 0
217 1 1.5371579481728160e+01 1.2519208891656747e+01 1.5726656756911257e+01 0 0 0
220 1 1.2063878356699597e+01 1.2042538099866862e+01 1.2612374722088026e+01 0 0 0
177 1 3.1349851541800149e+00 1.2468466797731848e+01 1.5600289727103084e+01 0 0 0
178 1 1.3648613897373436e+00 1.4042728322421736e+01 1.7120723000989550e+01 0 0 0
219 1 1.7109467881588390e+01 1.4098027185902978e+01 1.3986161413769523e+01 0 0 0
218 1 1.3736214748507122e+01 1.4043547388115579e+01 1.7146430769009150e+01 0 0 0
179 1 4.3737915636828015e+00 1.4113837514248086e+01 1.4106038153305201e+01 0 0 0
238 1 2.0391249122993749e+01 1.3751037811683217e+01 1.6997298181986366e+01 0 0 0
198 1 7.7686735516577041e+00 1.3540124208168571e+01 1.7084663536070529e+01 0 0 0
197 1 9.1857322349202501e+00 1.1988719158864360e+01 1.5648207791312043e+01 0 0 0
199 1 1.0783453683969233e+01 1.3515385048713485e+01 1.4177949696269657e+01 0 0 0
201 1 1.5482075659818607e+01 -8.9995482143331029e-02 1.5734694709197264e+01 0 0 0
621 1 1.8816298224912146e+01 1.5443253997928881e+01 1.5360929487685524e+01 0 0 0
240 1 1.8673347118246891e+01 1.2482427672523073e+01 1.2676040476477606e+01 0 0 0
276 1 9.4679291988741685e+00 9.3034016231768089e+00 1.8617418824303421e+01 0 0 0
256 1 2.9035105888672113e+00 9.0405652079976466e+00 1.8440400507631118e+01 0 0 0
268 1 9.3284063525788792e+00 2.6976804231546399e+00 1.8454065278454181e+01 0 0 0
300 1 1.2504194169683432e+01 1.2307074039943698e+01 1.8490479694809686e+01 0 0 0
704 1 2.1963093863130855e+01 1.5455976917551546e+01 1.8504895385902721e+01 0 0 0
584 1 9.3191596202677101e+00 1.5274658564847739e+01 1.2511298639510464e+01 0 0 0
235 1 1.8881109497835272e+01 6.4950347201870260e+00 1.2407850056219811e+01 0 0 0
243 1 1.4762908910529033e+00 1.0116900169917695e+00 2.3784611853708761e+01 0 0 0
242 1 2.1765211135217344e-03 2.8651080865450305e+00 2.2164367148952302e+01 0 0 0
247 1 3.5963547191020562e-01 5.4246585899762972e-02 1.8702305436714241e+01 0 0 0
681 1 1.2234748003162716e+01 1.5361663073568817e+01 2.1667359452423113e+01 0 0 0
245 1 4.6601019373654911e+00 1.0403329183187406e+00 2.0203093802202545e+01 0 0 0
262 1 6.1915499913545986e+00 2.6201676102278482e+00 2.1869736069475323e+01 0 0 0
263 1 7.9925958015318574e+00 1.1286601023976770e+00 2.3362613544662707e+01 0 0 0
255 1 2.4767372429211456e+01 6.5783003837818059e+00 1.8670280431526720e+01 -1 0 0
265 1 1.1168617452812898e+01 1.4576778716286987e+00 2.0198163891906503e+01 0 0 0
282 1 1.2414308258710397e+01 3.1488938960192265e+00 2.1960190022187874e+01 0 0 0
283 1 1.4243408744833463e+01 1.5633632552722994e+00 2.3122417312541096e+01 0 0 0
317 1 2.2188779223883383e+01 1.2297157537016059e+01 2.1715840566222617e+01 0 0 0
285 1 1.7079291971038625e+01 1.4520131584991312e+00 2.0154471909279302e+01 0 0 0
302 1 1.8468313730446223e+01 3.0731850550900246e+00 2.1612850405626865e+01 0 0 0
303 1 1.9897276294368108e+01 1.1861188464960912e+00 2.2777082391522889e+01 0 0 0
288 1 1.5297483828787518e+01 2.8597510340563326e+00 1.8809752759573591e+01 0 0 0
305 1 2.3543658573762343e+01 1.5148222857674407e+00 2.0194624901004403e+01 0 0 0
281 1 1.5778757039205161e+01 -2.8728777207994938e-02 2.1713348566518981e+01 0 0 0
248 1 3.0307155225134164e+00 2.6872091082608653e+00 1.8914513797501577e+01 0 0 0
246 1 1.1262446660471412e+00 4.8141844921152606e+00 2.0274015582068600e+01 0 0 0
249 1 2.9133602080487040e+00 6.3454714883104035e+00 2.1787665029551093e+01 0 0 0
260 1 1.4344374791294998e-01 1.2143655665437814e+01 1.8866065126835672e+01 0 0 0
244 1 4.3934766692897975e+00 4.7008474415475030e+00 2.3327776124901384e+01 0 0 0
253 1 4.4546019914250881e+00 7.7599614864613597e+00 2.0223655007327991e+01 0 0 0
266 1 7.8251192040832942e+00 4.1926625309982484e+00 2.0306026986547970e+01 0 0 0
269 1 9.2388203450469426e+00 5.8626586376495045e+00 2.1884715075240258e+01 0 0 0
271 1 7.8054819222469884e+00 7.6128331562931653e+00 2.3296059984230773e+01 0 0 0
264 1 1.1002594752833298e+01 4.8442947580399105e+00 2.3639422299556280e+01 0 0 0
286 1 1.4204349111509513e+01 4.5241665489880516e+00 2.0591848096607791e+01 0 0 0
320 1 1.8755397470861801e+01 1.2801907765170050e+01 1.8862360102502535e+01 0 0 0
298 1 1.3836698414211440e+01 1.4059673960618881e+01 2.3389489016850675e+01 0 0 0
284 1 1.7107819977065216e+01 4.6943123930885635e+00 2.3349583098693060e+01 0 0 0
289 1 1.5647057551034740e+01 6.2842582290044202e+00 2.2021395853976848e+01 0 0 0
293 1 1.7109862966770251e+01 7.8585729452079729e+00 2.0429197315978840e+01 0 0 0
306 1 2.0184096117044394e+01 4.5989003265215684e+00 2.0428763632909892e+01 0 0 0
311 1 2.0063323716554223e+01 7.6499906030711884e+00 2.3528286234263213e+01 0 0 0
309 1 2.1641034032159965e+01 6.1433295328126043e+00 2.1846917193110137e+01 0 0 0
304 1 2.3023530471216397e+01 4.4283371565342122e+00 2.3536399052508266e+01 0 0 0
313 1 2.2876049817347955e+01 7.8746048535204496e+00 2.0368599985249737e+01 0 0 0
319 1 2.3654000534554434e+01 1.3901116340464657e+01 2.0142611656520330e+01 0 0 0
251 1 9.8547004405393523e-01 7.5430884587856770e+00 2.3612945144105524e+01 0 0 0
254 1 1.2490317370719397e+00 1.0329954167433884e+01 2.0257932673584698e+01 0 0 0
252 1 4.2822529748946696e+00 1.0866332521577290e+01 2.3202591848527653e+01 0 0 0
270 1 5.8931699766986538e+00 9.0424896791450369e+00 2.2025308329636204e+01 0 0 0
274 1 7.6068590518696793e+00 1.0665611959701655e+01 2.0633992360351854e+01 0 0 0
297 1 1.5351440538197117e+01 1.2791014504746274e+01 2.1999679165340297e+01 0 0 0
291 1 1.3725656142366441e+01 7.5416399149007960e+00 2.2989087753205631e+01 0 0 0
272 1 1.0949662861584907e+01 1.0936659852099947e+01 2.3487333496210717e+01 0 0 0
273 1 1.0613048483578551e+01 7.6133299372939902e+00 2.0329467103946151e+01 0 0 0
290 1 1.2484539107518367e+01 9.2924612745708774e+00 2.1428941181117239e+01 0 0 0
294 1 1.3909223596100498e+01 1.1270568954439989e+01 2.0420370527868215e+01 0 0 0
292 1 1.7037701638946952e+01 1.1110954421302049e+01 2.3323220043609368e+01 0 0 0
299 1 1.6877618505904813e+01 1.4055966757732604e+01 2.0304976603748536e+01 0 0 0
310 1 1.8401252508019798e+01 9.3486154144776741e+00 2.1954913436270814e+01 0 0 0
314 1 2.0025403712385121e+01 1.0979398042379506e+01 2.0257212578281241e+01 0 0 0
250 1 2.4575751733588383e+01 9.0930176682904165e+00 2.2138596300659465e+01 -1 0 0
312 1 2.3331342964623509e+01 1.0874711601778072e+01 2.3661048535301852e+01 0 0 0
257 1 3.1386828897813102e+00 1.2494501147688059e+01 2.1292499713341840e+01 0 0 0
258 1 1.7185498900491545e+00 1.3809288039829907e+01 2.3153230661617613e+01 0 0 0
318 1 2.0372570674894266e+01 1.3634248118579814e+01 2.3159730197859822e+01 0 0 0
259 1 4.7440859322950972e+00 1.3951059617483143e+01 2.0055419591778950e+01 0 0 0
278 1 7.6502592566404184e+00 1.4205442414315824e+01 2.3313159282983918e+01 0 0 0
277 1 9.0494836874000342e+00 1.2215020468282621e+01 2.2102700262702172e+01 0 0 0
279 1 1.0346622218982187e+01 1.3372494029115897e+01 1.9949203892768182e+01 0 0 0
308 1 2.1769563917909036e+01 3.2837991159289563e+00 1.8787031350721428e+01 0 0 0
296 1 1.5396033288350219e+01 9.4097729769244562e+00 1.9145451215033418e+01 0 0 0
280 1 6.3544250613884330e+00 1.2077825366872872e+01 1.8914090550026820e+01 0 0 0
275 1 5.9027297845506146e+00 5.9131988931031785e+00 1.8988341874490452e+01 0 0 0
348 1 9.1193566089585296e+00 3.2297850196100648e+00 2.4738975722785248e+01 0 0 0
376 1 1.5084984740618344e+01 9.2074486935543920e+00 2.4701818990080056e+01 0 0 0
367 1 1.2521491821995477e+01 1.8149235208236580e-02 2.4817135176540589e+01 0 0 0
295 1 1.2230030309713221e+01 5.7573204024022449e+00 1.8832133245411349e+01 0 0 0
336 1 2.7734263894997180e+00 9.3219297762010793e+00 2.4723257553789537e+01 0 0 0
641 1 1.9005715496834935e-01 1.5472454818677088e+01 2.1763406056241230e+01 0 0 0
356 1 9.2069082806223026e+00 9.3710387893845208e+00 2.4741313095290018e+01 0 0 0
368 1 1.5485096688261079e+01 2.9996605429292091e+00 2.4767038788649756e+01 0 0 0
764 1 1.5484524893892210e+01 1.5504703788637993e+01 2.4853540734510212e+01 0 0 0
387 1 1.8630042057686051e+01 1.6763073810866974e-01 2.4765815664637884e+01 0 0 0
315 1 1.8213354625098248e+01 5.9223929238179380e+00 1.8767854699678139e+01 0 0 0
316 1 2.1549606161434831e+01 9.2688427509811397e+00 1.8645624721384841e+01 0 0 0
323 1 1.5240034194968759e+00 1.6135515842907893e+00 2.9557688959360831e+01 0 0 0
322 1 2.4845128471135528e+01 2.7952083999474855e+00 2.7912215253853752e+01 -1 0 0
328 1 2.8927040967102675e+00 2.9259236112630829e+00 2.5090911437664772e+01 0 0 0
347 1 6.4170830564994796e+00 1.3777390803863199e-01 2.5252701958960451e+01 0 0 0
47 1 1.2100362923387863e+01 5.1244507715895532e-02 3.1113743783759055e+01 0 0 -1
325 1 4.0355032585114392e+00 1.3051782057044679e+00 2.6632523695881410e+01 0 0 0
342 1 5.8372223201718541e+00 2.5458528889640162e+00 2.7965480532017345e+01 0 0 0
397 1 2.1477959446680263e+01 1.2537238779240496e+01 2.7999178507250548e+01 0 0 0
343 1 7.5581420338212570e+00 1.3619882895006670e+00 2.9430159081705447e+01 0 0 0
341 1 9.1759406032439870e+00 -9.0869698128679760e-02 2.8002957276043588e+01 0 0 0
396 1 2.1688913489509655e+01 9.3500630053113554e+00 2.5066277076221219e+01 0 0 0
345 1 1.0760727619422171e+01 1.4860540510430664e+00 2.6098960217112364e+01 0 0 0
362 1 1.2177363754594193e+01 2.9463307964120502e+00 2.7729337947186288e+01 0 0 0
400 1 1.8718653036820985e+01 1.2266942329466877e+01 2.5060569880701685e+01 0 0 0
363 1 1.3842037042930468e+01 1.3149202875669082e+00 2.9488304704975654e+01 0 0 0
365 1 1.7128230547955404e+01 1.5969921117600046e+00 2.6522322869114412e+01 0 0 0
335 1 2.4454794593956439e+01 5.8607446613902097e+00 2.4906793368783639e+01 -1 0 0
382 1 1.8664369512800786e+01 3.5517220921721275e+00 2.7899061625771175e+01 0 0 0
383 1 2.0311546242133826e+01 1.7053731546465118e+00 2.9473026881919431e+01 0 0 0
781 1 1.8562199074426143e+01 1.5408351520097003e+01 2.8223981276016154e+01 0 0 0
385 1 2.3443241695859204e+01 1.1451191016060993e+00 2.6235442703157631e+01 0 0 0
404 1 3.1388341587347814e+00 1.5321340544685370e+01 3.0852670023387404e+01 0 0 -1
326 1 1.3660558072115596e+00 4.5386055461079300e+00 2.6495075975877583e+01 0 0 0
329 1 2.9816641114435289e+00 6.2062978078536899e+00 2.8098489013209317e+01 0 0 0
399 1 2.3219307512101761e+01 1.3874838365741780e+01 2.6252310315656018e+01 0 0 0
324 1 4.6319302793693176e+00 4.5320305181224709e+00 2.9666450674822379e+01 0 0 0
380 1 1.2482238118095925e+01 1.2477679879038424e+01 2.5223372965637800e+01 0 0 0
346 1 7.5143989699515084e+00 4.3391930113003765e+00 2.6436278082944789e+01 0 0 0
349 1 9.1952884967967723e+00 6.1070624496795345e+00 2.8157762844001908e+01 0 0 0
344 1 1.0988972800527058e+01 4.5620239329852561e+00 2.9623387729664074e+01 0 0 0
366 1 1.4244317748889157e+01 4.6187898225917001e+00 2.6672770592468488e+01 0 0 0
364 1 1.7118653681300543e+01 5.0292461373090571e+00 2.9611693280329369e+01 0 0 0
369 1 1.5547925163167239e+01 6.4546642271239785e+00 2.8219104819854266e+01 0 0 0
386 1 2.0444943020905399e+01 4.8375887776271602e+00 2.6484735797887339e+01 0 0 0
391 1 2.0005843207988665e+01 7.5219002060229956e+00 2.9892337971587018e+01 0 0 0
398 1 1.9999716738666397e+01 1.3907297513048590e+01 2.9735071862264782e+01 0 0 0
389 1 2.1900386973459433e+01 6.2916757428432968e+00 2.8242250859518521e+01 0 0 0
384 1 2.3159719468080755e+01 4.5563010641833470e+00 2.9573055287213101e+01 0 0 0
339 1 4.5696082718909938e+00 1.4177206538690580e+01 2.6621893246942740e+01 0 0 0
331 1 1.3469404321152081e+00 7.9210887380213446e+00 2.9382533920819689e+01 0 0 0
334 1 1.4829775601351289e+00 1.0982343653590679e+01 2.6411834825183526e+01 0 0 0
330 1 2.4833472707552978e+01 9.4092869700247803e+00 2.7914420816517520e+01 -1 0 0
333 1 4.4868396791195515e+00 7.8198706752334513e+00 2.6382551994167777e+01 0 0 0
332 1 4.3287508265661696e+00 1.0957518545949767e+01 2.9229572253819171e+01 0 0 0
350 1 6.1303058187723387e+00 9.4681666269295128e+00 2.7909399635286938e+01 0 0 0
351 1 7.7914503721854347e+00 7.3340976798717632e+00 2.9755010557829728e+01 0 0 0
354 1 7.6776907416615821e+00 1.1208301611164654e+01 2.6351173404555198e+01 0 0 0