LAMMPS data file via write_data, version 12 Dec 2018, timestep = 52000

1531 atoms
1 atom types

2.4196653074318294e-01 4.9418249177307722e+01 xlo xhi
2.4925866859411835e-01 3.1012053327919300e+01 ylo yhi
2.1638787215292271e-01 3.1044924124360328e+01 zlo zhi

Masses

1 18.015

Atoms # atomic

8 1 3.4817755805743995e+00 1.5504373164511909e+00 3.3397508813061760e+00 0 0 0
7 1 1.7672391854691269e+00 3.7107480801289827e-01 1.5686572827021812e+00 0 0 0
1300 1 3.7253015800309724e-01 2.1051861777748764e+00 3.7664622170634737e-01 1 4 2
16 1 5.0286438872156083e+00 2.8870956541362247e+00 1.7063204606769824e+00 0 0 0
13 1 6.4581830184742790e+00 1.3019038609020925e+00 2.8268273735131810e-01 0 0 0
12 1 9.5685174308473684e+00 1.3813509500114731e+00 3.4692218348709574e+00 0 0 0
15 1 1.5315000847968121e+00 5.9034167216156339e+00 1.4122491129776251e+00 0 0 0
17 1 6.4192957659209497e+00 4.5601234253691691e+00 3.4447416015130252e+00 0 0 0
20 1 7.6026829929508866e+00 6.0129527568563095e+00 1.5792518337056503e+00 0 0 0
22 1 2.7405040276567836e+00 7.6179412383315626e+00 3.4262190320761152e+00 0 0 0
24 1 4.2982863171340320e+00 9.2349621203008976e+00 1.9678054244519971e+00 0 0 0
23 1 9.3942159999350778e+00 7.5621363088008895e+00 3.0205042397681194e+00 0 0 0
79 1 1.9507775582144551e+00 1.2471756588995190e+01 1.1936758795757043e+00 0 0 0
80 1 3.3434754299739757e+00 1.3869093589735215e+01 3.1916531243676043e+00 0 0 0
6 1 5.8516881795985567e+00 1.0632983014913512e+01 3.5113351807187678e+00 0 0 0
84 1 7.5689112537354797e+00 1.2170907356807058e+01 1.9737735517174311e+00 0 0 0
85 1 9.2500895124999367e+00 1.3638463194065100e+01 3.6639756001507915e+00 0 0 0
83 1 9.3648795013485149e+00 1.0849961093244486e+01 4.9761006172543942e-01 0 0 0
88 1 3.1882503056011040e+00 1.6966670799920511e+01 4.5079854846254108e-01 0 0 0
90 1 4.9767932043686480e+00 1.5542256444751237e+01 1.7704083399350745e+00 0 0 0
91 1 6.5327524454764090e+00 1.6888186541106414e+01 3.5775559150847500e+00 0 0 0
109 1 6.4232112258636125e+00 1.4060786892503385e+01 5.7209070472857748e-01 0 0 0
108 1 9.7218680063859093e+00 1.6937140781245031e+01 3.8160281149737485e-01 0 0 0
94 1 1.6274495975938632e+00 1.8357548552505236e+01 1.8279796860113382e+00 0 0 0
96 1 2.9429618917797900e+00 1.9696634550069422e+01 3.4966783552914453e+00 0 0 0
99 1 7.9813818216106753e+00 1.8451653815791023e+01 1.7464663062294081e+00 0 0 0
100 1 9.6626810417603686e+00 1.9774086232457769e+01 3.6013226808722383e+00 0 0 0
1265 1 2.4636524472698995e-01 2.3750001337334641e+01 4.0070541520867087e+00 -1 -2 0
98 1 4.8910581922104317e+00 2.1394343244324077e+01 2.0543503255696098e+00 0 0 0
104 1 6.6919038855818975e+00 2.2908973230738077e+01 3.3382115045647258e+00 0 0 0
112 1 9.8119509619234346e+00 2.3405081560193857e+01 3.0424859775281204e-01 0 0 0
110 1 3.0632074883641214e+00 2.5865713158821229e+01 2.9909552991897526e+00 0 -1 0
102 1 1.7965254085187443e+00 2.4295209423127968e+01 1.5429660733809518e+00 0 0 0
30 1 6.2827807297499056e+00 2.6139504742722487e+01 3.0118369481720536e-01 0 -1 0
81 1 9.3751425753485496e+00 2.5942355819932683e+01 2.9881998358984272e+00 0 -1 0
103 1 7.7217571102982712e+00 2.4473121672131924e+01 1.5530727909180486e+00 0 0 0
2 1 4.7105763488651642e-01 2.9391790445313028e+01 3.1298394402984657e+00 0 -1 0
4 1 6.4155696273863514e+00 2.9130949711584680e+01 3.3893841581981965e+00 0 -1 0
3 1 4.7543402591782487e+00 2.7861829073548552e+01 1.8386570058881997e+00 0 -1 0
11 1 7.9231313099162488e+00 3.0571669682501366e+01 1.8079398894484668e+00 0 -1 0
14 1 1.5523676248160196e+00 3.0265225500635529e+00 4.7865096395505029e+00 0 0 0
1119 1 2.4427147569612012e-01 1.5706339825620945e+00 6.5452965056370873e+00 0 -1 -2
27 1 6.1370346315704669e+00 1.1136017303917409e+00 6.2791801820132989e+00 0 0 0
42 1 4.5571831504084708e+00 2.8218478780264018e+00 7.5708003802671335e+00 0 0 0
19 1 7.6788813002781806e+00 2.7198102794595491e+00 5.0504101285377709e+00 0 0 0
10 1 2.9483470438569621e+00 4.5789140447371555e+00 6.3304273170431626e+00 0 0 0
46 1 1.4725363454688694e+00 6.2393133832955350e+00 7.8554525062828136e+00 0 0 0
18 1 4.4398480766823498e+00 6.1135248939077611e+00 4.6490977546238463e+00 0 0 0
45 1 9.3618643011713800e+00 4.4241813411992377e+00 6.7302110024703845e+00 0 0 0
50 1 7.4788637175513069e+00 5.9518901064140648e+00 7.7144198400970847e+00 0 0 0
21 1 1.1027495087129817e+00 9.4135044133331398e+00 4.5579864408199224e+00 0 0 0
54 1 5.8398962875248266e+00 7.6835422637529938e+00 6.4010764824465634e+00 0 0 0
55 1 4.4621084261819224e+00 9.2624963336128374e+00 7.8434532505474683e+00 0 0 0
25 1 7.6406606928158860e+00 8.8554185583306513e+00 4.9748712919973066e+00 0 0 0
93 1 2.7199484473157027e+00 1.0772640100747493e+01 6.2043425866014612e+00 0 0 0
82 1 4.4359368597049826e+00 1.2326008190947043e+01 4.9141387440366033e+00 0 0 0
116 1 6.4062666519611042e+00 1.3590705838301753e+01 6.8104502928646582e+00 0 0 0
37 1 9.1574785815949404e+00 1.0593918673694340e+01 6.4193674193094221e+00 0 0 0
89 1 1.8553528032496462e+00 1.5221076981039230e+01 4.9498235755873088e+00 0 0 0
107 1 3.4412489555577994e+00 1.6888018024420763e+01 6.1696409525058016e+00 0 0 0
122 1 4.6889996951114981e+00 1.5309101026414469e+01 7.7687144953412952e+00 0 0 0
92 1 8.1519800375205325e+00 1.5524198587626678e+01 5.3036074388625254e+00 0 0 0
138 1 9.7086535527588183e+00 1.6752159409498891e+01 6.7971893496774172e+00 0 0 0
1003 1 3.9123351679646290e-01 1.8017923286085963e+01 4.6472542115148183e+00 1 0 2
97 1 5.0595065319337893e+00 1.8522919800958245e+01 4.9298118230586070e+00 0 0 0
146 1 6.7339537347564686e+00 2.0420262352069265e+01 6.4025873084705882e+00 0 0 0
95 1 1.5789756854196535e+00 2.1437115295231845e+01 4.9892304232477764e+00 0 0 0
106 1 3.2553259882701409e+00 2.2841631002693564e+01 6.1633726368335298e+00 0 0 0
105 1 4.8839458347438374e+00 2.4174302372167730e+01 4.5057905253560540e+00 0 0 0
130 1 5.0787444311370491e+00 2.1713772863500857e+01 7.4971950282372717e+00 0 0 0
101 1 8.2987880814750721e+00 2.1549466393742215e+01 4.6922904792277480e+00 0 0 0
86 1 9.8678567696892987e+00 2.2770027584768002e+01 6.3723088922536251e+00 0 0 0
134 1 1.6470423281615181e+00 2.4641691194152809e+01 7.7479404495252444e+00 0 0 0
26 1 2.4642125202217927e-01 2.6267060293056215e+01 6.2331443763988563e+00 0 -1 0
111 1 6.4178770200640152e+00 2.5716790885016863e+01 6.1655795648308125e+00 0 -1 0
32 1 5.2446728476087703e+00 2.7117888730913130e+01 7.8833096084541507e+00 0 -1 0
137 1 7.9479374282143871e+00 2.4290475543028794e+01 7.6866533897586935e+00 0 0 0
5 1 7.9123118007880322e+00 2.7399876075451250e+01 4.8502073874315723e+00 0 -1 0
1 1 1.8465665490485204e+00 2.7823245173674700e+01 4.4706101902468109e+00 0 -1 0
38 1 1.8672945664779903e+00 3.0404225995179647e+01 7.7042700928699874e+00 0 -1 0
28 1 3.3659074449640305e+00 2.8525305031966674e+01 6.3686659721115246e+00 0 -1 0
9 1 4.6082339861585622e+00 3.0385257583843185e+01 4.8887117512949807e+00 0 -1 0
29 1 9.6045348362511316e+00 2.8847721199521970e+01 6.2680693371800036e+00 0 -1 0
39 1 3.4498799082570106e+00 1.3578186061882818e+00 9.1470459374095050e+00 0 0 0
40 1 2.1561019757545417e+00 3.1230699145450811e+00 1.0550510157841503e+01 0 0 0
44 1 9.5018822849948812e+00 1.2069071308366059e+00 9.9662289543135714e+00 0 0 0
49 1 7.6505242195443746e+00 3.1270948496078561e+00 1.1153106954917316e+01 0 0 0
48 1 5.9489967543854281e+00 4.3639178679668662e+00 9.3390249491431483e+00 0 0 0
47 1 4.5512148191959492e+00 6.3254837698008286e+00 1.0745335080594868e+01 0 0 0
52 1 2.9116651688542627e+00 7.6094870771692413e+00 9.3889266853219659e+00 0 0 0
53 1 1.4606177292393125e+00 8.9593082786029754e+00 1.1274223201912390e+01 0 0 0
57 1 8.8844408389503293e+00 7.6310059073545435e+00 9.3504121426130435e+00 0 0 0
56 1 7.5579432094162637e+00 9.1806257359556280e+00 1.0836383839898533e+01 0 0 0
113 1 1.4252573105573210e+00 1.1919990945799912e+01 7.9614114767403530e+00 0 0 0
114 1 3.0105610593746488e+00 1.3395803000634867e+01 9.2656016470397873e+00 0 0 0
140 1 6.1618638457504762e+00 1.0853438603469055e+01 9.4196990396012428e+00 0 0 0
115 1 4.3528454165742705e+00 1.2322846726983675e+01 1.0959456853465008e+01 0 0 0
117 1 7.8908345619308484e+00 1.1927138331881277e+01 8.3501233772387025e+00 0 0 0
118 1 9.7893231708438879e+00 1.3459020362048989e+01 9.5409001765620847e+00 0 0 0
120 1 1.8378418647565562e+00 1.5086386184197023e+01 1.1162621020740891e+01 0 0 0
123 1 6.2456922418697580e+00 1.6911970342223242e+01 9.4437350714487529e+00 0 0 0
124 1 7.8481748688592745e+00 1.5127172232860506e+01 1.0391313585023305e+01 0 0 0
121 1 1.8176711492093585e+00 1.8162927763691471e+01 7.9533423358570108e+00 0 0 0
128 1 3.2898865770515107e+00 2.0064389380909894e+01 8.9781405153455314e+00 0 0 0
129 1 4.6286601113954058e+00 1.8737207381045156e+01 1.0655607482499914e+01 0 0 0
125 1 7.7572076491839015e+00 1.8560674148365820e+01 8.0864756630504235e+00 0 0 0
131 1 9.1430319382710437e+00 2.0071466178308214e+01 9.7347632033143920e+00 0 0 0
133 1 3.6216954167989912e-01 2.2919508646371636e+01 9.1999022135940152e+00 0 0 0
127 1 1.8811867925000865e+00 2.1330993564282789e+01 1.0696724415865827e+01 0 0 0
136 1 6.4415202920699093e+00 2.3034725142667433e+01 9.2885142482539020e+00 0 0 0
135 1 5.0679079104138767e+00 2.4165392511569909e+01 1.0919125576939100e+01 0 0 0
132 1 7.4576211601826738e+00 2.1381144553346729e+01 1.1141158710115466e+01 0 0 0
119 1 3.4579519586027452e+00 2.5789437532581463e+01 9.2174001582549074e+00 0 -1 0
139 1 9.5383142815909583e+00 2.6034320811594689e+01 9.3201036777851893e+00 0 -1 0
34 1 8.0340301735608595e+00 2.7559174033597394e+01 1.0903627652939401e+01 0 -1 0
31 1 2.1165902959518981e+00 2.7792440933735541e+01 1.0671060145566338e+01 0 -1 0
41 1 5.0580306572630773e+00 3.0273578916166230e+01 1.0819122567974917e+01 0 -1 0
33 1 6.2968567329011309e+00 2.8804116003743012e+01 9.6380858214244274e+00 0 -1 0
43 1 7.7635472452038261e+00 3.0584262739584624e+01 8.0578280278666856e+00 0 -1 0
69 1 1.4403109671323715e+00 3.0179526834876114e-01 1.3701985843518441e+01 0 0 0
70 1 3.3491809075902164e+00 1.3060039086961626e+00 1.5441426178228461e+01 0 0 0
64 1 6.3643998953807763e+00 1.1302979589897901e+00 1.2488890407338328e+01 0 0 0
73 1 4.8799729314577451e+00 2.9206278485320869e+00 1.4181316850610459e+01 0 0 0
59 1 3.4809040925828714e+00 4.6717889406565671e+00 1.2349777728724355e+01 0 0 0
72 1 1.3851546573083491e+00 5.7981364226736067e+00 1.3920038347405978e+01 0 0 0
74 1 6.2167076527450060e+00 4.7016282845065263e+00 1.5611688576610199e+01 0 0 0
76 1 8.9641951184474902e+00 4.7257509763088015e+00 1.2863656608855832e+01 0 0 0
75 1 7.6458514224228029e+00 6.5166607247541011e+00 1.3961154961123443e+01 0 0 0
61 1 6.0431134104054776e+00 7.9751314852126738e+00 1.2379280412732429e+01 0 0 0
77 1 4.5977051684633361e+00 9.3163097093256422e+00 1.4239309439638957e+01 0 0 0
78 1 9.4948811850086585e+00 1.0458619399329132e+01 1.2666647200787668e+01 0 0 0
63 1 2.8233777530625068e+00 1.0530179247814067e+01 1.2408217227871635e+01 0 0 0
147 1 1.7212699658959449e+00 1.2150422537115965e+01 1.4191021251503297e+01 0 0 0
148 1 3.7417326539213640e+00 1.3758141647118785e+01 1.5391268604950296e+01 0 0 0
149 1 7.8879233136056728e+00 1.1978575284890880e+01 1.3911697823608602e+01 0 0 0
150 1 9.3145583062346144e+00 1.3508451950720767e+01 1.5383458652325604e+01 0 0 0
145 1 3.2953618901268524e+00 1.7098521949646226e+01 1.2087267098477181e+01 0 0 0
153 1 3.5881454609483110e-01 1.6843950087224133e+01 1.5465458578114054e+01 0 0 0
1128 1 2.6333599286091997e-01 1.4498260933091800e+01 1.3457963050444507e+01 1 -1 -1
155 1 4.9256620299944149e+00 1.5373398889407671e+01 1.3489783285662750e+01 0 0 0
156 1 6.4595582554502462e+00 1.7228378806299620e+01 1.5340880892423025e+01 0 0 0
143 1 6.8485894112032195e+00 1.4012774806397525e+01 1.2356011429256709e+01 0 0 0
144 1 9.4705152466075120e+00 1.6569073625071244e+01 1.2366098643737322e+01 0 0 0
154 1 1.7536306526260323e+00 1.8323811987394304e+01 1.3836126714381143e+01 0 0 0
163 1 6.6724405324661440e-01 2.0273125675323246e+01 1.2684955809005988e+01 0 0 0
141 1 6.2656460358384756e+00 1.9613451364395871e+01 1.2441833675025073e+01 0 0 0
158 1 8.1191261365544456e+00 1.8381588402415840e+01 1.3900332464033392e+01 0 0 0
164 1 3.4462523532088438e+00 2.2673736879736605e+01 1.2578311718382837e+01 0 0 0
160 1 3.1009762699204219e-01 2.3369863081764592e+01 1.5588338683527725e+01 0 0 0
157 1 4.8074061082572097e+00 2.1264730399262682e+01 1.4146708952735493e+01 0 0 0
162 1 5.9442766731165966e+00 2.3474896656674311e+01 1.5383311020850627e+01 0 0 0
152 1 9.2391507092659513e+00 2.2955664009489674e+01 1.2622940526450684e+01 0 0 0
35 1 6.0713383812585775e-01 2.6459242362236896e+01 1.2357377041783668e+01 0 -1 0
161 1 1.9614551058762248e+00 2.4705633037760602e+01 1.3772843313072700e+01 0 0 0
68 1 3.4428029077252660e+00 2.6318767674354490e+01 1.5399378932100420e+01 0 -1 0
66 1 4.8926140502012121e+00 2.7563170994953378e+01 1.3754876888399238e+01 0 -1 0
142 1 6.5794931306887650e+00 2.5949835415284475e+01 1.2060853770867984e+01 0 -1 0
151 1 7.7429484425718975e+00 2.4619381286489762e+01 1.4070155545797324e+01 0 0 0
159 1 9.7570698542604593e+00 2.5846153536993409e+01 1.5269719213095961e+01 0 -1 0
62 1 3.3241994526223682e+00 2.9116152326176408e+01 1.2360145413355953e+01 0 -1 0
65 1 3.4955226260853867e-01 2.9738892725089066e+01 1.5535460913901883e+01 0 -1 0
67 1 6.6384264038711160e+00 2.8958146078292991e+01 1.5207280371699701e+01 0 -1 0
71 1 8.2597250585716466e+00 3.0524309707155727e+01 1.3844341843645180e+01 0 -1 0
58 1 9.7438771765648298e+00 2.9052466641928781e+01 1.2242755494763694e+01 0 -1 0
167 1 2.0974605083068334e+00 2.8802449950965521e+00 1.7112498221663916e+01 0 0 0
208 1 6.1117440631100131e+00 1.2464448870894895e+00 1.9054023463145814e+01 0 0 0
170 1 7.7896425372449043e+00 2.8374561366843007e+00 1.7089471272667534e+01 0 0 0
169 1 9.4911422642431624e+00 1.3535594943046294e+00 1.5697439996920014e+01 0 0 0
180 1 3.1417519117867498e+00 4.3239397721512303e+00 1.8513667693873998e+01 0 0 0
172 1 4.8659680748969532e+00 5.9958668897013379e+00 1.7233054749479752e+01 0 0 0
179 1 9.6422010212689475e+00 4.5825847922339307e+00 1.8688235402147363e+01 0 0 0
191 1 4.0858160314125636e-01 7.3775459215730201e+00 1.8933439491868040e+01 0 0 0
176 1 1.6180966712386924e+00 9.2463344803018490e+00 1.7212259555302150e+01 0 0 0
175 1 3.3709707842185064e+00 7.6971773614478192e+00 1.5712874874701148e+01 0 0 0
207 1 6.5590376216898978e+00 7.3127654044485775e+00 1.8980800060102094e+01 0 0 0
177 1 7.9595044239048063e+00 8.7517452844473649e+00 1.7176699290856632e+01 0 0 0
178 1 9.3627540341073363e+00 7.2250801537419953e+00 1.5760129570209676e+01 0 0 0
692 1 6.4107616895460140e-01 1.1780849496606713e+01 1.6687122526906251e+01 0 2 1
248 1 3.7114172253392241e+00 1.0698419661226096e+01 1.8576730843449138e+01 0 0 0
249 1 5.1628903638314627e+00 1.2212224880004545e+01 1.7132691522616430e+01 0 0 0
173 1 6.5819623694173934e+00 1.0537628901614141e+01 1.6018630316006757e+01 0 0 0
171 1 9.2350563600723650e+00 1.0513711498462500e+01 1.8657491958871262e+01 0 0 0
252 1 7.1880911596575092e-01 1.4092514745340903e+01 1.8385771759439002e+01 0 0 0
250 1 2.2355272385912799e+00 1.5371775629744260e+01 1.6678444442885407e+01 0 0 0
259 1 3.1913007249238183e+00 1.6779318566547275e+01 1.8670107884817458e+01 0 0 0
261 1 6.8659699868516775e+00 1.4172255678240695e+01 1.8629420254214871e+01 0 0 0
251 1 7.9937179764574466e+00 1.5530271458772305e+01 1.6671072112138720e+01 0 0 0
260 1 9.7241457417648558e+00 1.6810086987282105e+01 1.8427417116137061e+01 0 0 0
255 1 3.2498736022323045e+00 2.0129988361919814e+01 1.5781123165210039e+01 0 0 0
256 1 4.9093964170653424e+00 1.8389216882784734e+01 1.7323613896310828e+01 0 0 0
295 1 6.6455334899118901e+00 2.0087521505482641e+01 1.8744004820342564e+01 0 0 0
257 1 9.5124443282848006e+00 1.9698507061277837e+01 1.5739950934684408e+01 0 0 0
254 1 1.8350643014992418e+00 2.1852632235385197e+01 1.7657870310602721e+01 0 0 0
291 1 3.6026223931257948e+00 2.3111181502391847e+01 1.9052441078286538e+01 0 0 0
292 1 9.4042403520078732e+00 2.2956807320006959e+01 1.8919075930739137e+01 0 0 0
258 1 7.8089901288052612e+00 2.1767735376699395e+01 1.6968146903662550e+01 0 0 0
184 1 6.2266656377934271e-01 2.6243718676228657e+01 1.8771946860204572e+01 0 -1 0
253 1 4.9151048909909179e+00 2.4832076052287864e+01 1.7289855264879350e+01 0 0 0
294 1 6.7200036923627016e+00 2.6054929464631822e+01 1.8818778911737056e+01 0 -1 0
166 1 8.1097924654739284e+00 2.7142886680136520e+01 1.6672130903645890e+01 0 -1 0
188 1 3.2677172480591379e+00 2.8834693918410906e+01 1.8981217448218029e+01 0 -1 0
165 1 1.8238055556203945e+00 2.7747019307902313e+01 1.7004599919635925e+01 0 -1 0
168 1 5.1038594287627381e+00 3.0172003561472781e+01 1.7253965943328677e+01 0 -1 0
181 1 9.5040378089820532e+00 2.8844998249525460e+01 1.8527143292170770e+01 0 -1 0
190 1 3.1515055475680058e+00 1.6718241253215822e+00 2.1814593313095330e+01 0 0 0
193 1 4.6777281079288127e+00 3.0637575593899395e+00 2.0272235152494140e+01 0 0 0
195 1 9.4153248067376243e+00 1.1967105860874294e+00 2.1910299816141066e+01 0 0 0
196 1 7.9959541011774338e+00 2.9189754526746956e+00 2.3302106330724126e+01 0 0 0
198 1 1.5033957651489103e+00 5.5927671265362555e+00 2.0306038285162629e+01 0 0 0
200 1 6.1022774144807101e+00 4.3258335541761843e+00 2.2048946723872788e+01 0 0 0
199 1 4.5070586126412913e+00 6.1205919718296702e+00 2.3209932150375110e+01 0 0 0
201 1 7.7992667877118542e+00 5.9230722570595757e+00 2.0676891872107159e+01 0 0 0
202 1 3.3746324858137573e+00 7.7227965472926137e+00 2.1326282972719632e+01 0 0 0
203 1 1.9683385180004500e+00 9.0166168190794718e+00 2.3161254310484711e+01 0 0 0
204 1 4.9643910612586897e+00 9.1561275962456552e+00 2.0106328756506812e+01 0 0 0
206 1 9.2278332129325680e+00 7.4477726854424153e+00 2.2125267257521848e+01 0 0 0
205 1 7.8422440625041681e+00 9.4064538059937419e+00 2.3318968909990357e+01 0 0 0
262 1 1.9667305643164714e+00 1.2250846247407498e+01 1.9998289635898548e+01 0 0 0
211 1 4.5474076793328677e-01 1.0653261439355578e+01 2.1790670176464403e+01 0 0 0
263 1 3.5080225080509355e+00 1.3718187430115373e+01 2.1594905452251425e+01 0 0 0
269 1 6.3933103057287477e+00 1.0953839602589682e+01 2.1643079408192481e+01 0 0 0
267 1 7.9576311189671989e+00 1.2489308507247772e+01 1.9995770104279192e+01 0 0 0
268 1 9.4406021754722040e+00 1.3645422918891100e+01 2.1798767883288043e+01 0 0 0
270 1 1.7932456413996047e+00 1.5348606950175043e+01 2.2882397171596203e+01 0 0 0
1180 1 3.6918422525633154e-01 1.6438374293917516e+01 2.0939719335823632e+01 2 0 1
273 1 4.8235463270210683e+00 1.5283853182697342e+01 2.0087012955832126e+01 0 0 0
274 1 6.3475755414916835e+00 1.7043621511882506e+01 2.1925830830154386e+01 0 0 0
271 1 1.7804732188501025e+00 1.8556629054777318e+01 2.0100801271962002e+01 0 0 0
277 1 3.2884627718479607e+00 1.9974067518016522e+01 2.1648252564978343e+01 0 0 0
281 1 8.1627342873962476e+00 1.8312368855314013e+01 2.0113644701877373e+01 0 0 0
282 1 9.5541990072504266e+00 1.9523063308152572e+01 2.1828613949686442e+01 0 0 0
279 1 5.0810072039816099e+00 2.1645175253484741e+01 2.0248124992398019e+01 0 0 0
287 1 6.3118992760063035e+00 2.3048649903034171e+01 2.2109314235991622e+01 0 0 0
283 1 7.9108894660218585e+00 2.1123137727590436e+01 2.2972772460007413e+01 0 0 0
286 1 1.6145944737794324e+00 2.4193244972445800e+01 2.0330306704846212e+01 0 0 0
264 1 3.0481262334793735e+00 2.5824410300751921e+01 2.1817293244375598e+01 0 -1 0
185 1 4.8812254806512847e+00 2.7214080104564818e+01 2.0251958592839021e+01 0 -1 0
285 1 7.7574664462181993e+00 2.4263799895525466e+01 2.0481641894136640e+01 0 0 0
266 1 9.5562932475043105e+00 2.5880779413915374e+01 2.1536798103445769e+01 0 -1 0
189 1 1.3818052399374208e+00 3.0927750888836258e+01 2.0321898544877111e+01 0 -1 0
183 1 2.6869100913693589e-01 2.9009755980415161e+01 2.2186080438956843e+01 0 -1 0
192 1 4.6171984449917840e+00 3.0816221199541719e+01 2.3333383399088596e+01 0 -1 0
186 1 6.3977497503854499e+00 2.8768721516553274e+01 2.1895528176924213e+01 0 -1 0
194 1 8.0154000199727022e+00 3.0316140203135404e+01 2.0353466789471426e+01 0 -1 0
197 1 1.2424024503623554e+00 2.8503429586758520e+00 2.3614604591836958e+01 0 0 0
247 1 6.3859856110436830e+00 1.3495491773303587e+00 2.5020485192166451e+01 0 0 0
229 1 4.7096516430832498e+00 3.1227113893702696e+00 2.6345869523743978e+01 0 0 0
210 1 3.0129353679047743e+00 4.6008174808354854e+00 2.4709546044614491e+01 0 0 0
228 1 1.7350618132098694e+00 6.2347530995749318e+00 2.6374746968735408e+01 0 0 0
212 1 9.3837237216917018e+00 4.6491433632759147e+00 2.4727351628582870e+01 0 0 0
233 1 7.8694082308746198e+00 6.4571077547878861e+00 2.6314925333445348e+01 0 0 0
241 1 6.1745765524597678e+00 7.8989058945555533e+00 2.4897083458005518e+01 0 0 0
226 1 4.7916136654859578e+00 9.3786682017301501e+00 2.6581897381072050e+01 0 0 0
280 1 3.3448929165275527e+00 1.0942660805928309e+01 2.4685019399164617e+01 0 0 0
296 1 1.5236428672053397e+00 1.2618120485699462e+01 2.6261335306148059e+01 0 0 0
265 1 5.1816037229644278e+00 1.2362510899089873e+01 2.3483948888021160e+01 0 0 0
305 1 9.3697714309472975e+00 1.0847149188949777e+01 2.4973755623686177e+01 0 0 0
302 1 7.7918904751562934e+00 1.2389074988416914e+01 2.6328511081772746e+01 0 0 0
293 1 2.8810674449196991e+00 1.6783659269271027e+01 2.4662426938375571e+01 0 0 0
290 1 6.4661864607529536e+00 1.4263354470888943e+01 2.4769287034527743e+01 0 0 0
309 1 4.7410457851706411e+00 1.5212220151027608e+01 2.6413453087701111e+01 0 0 0
275 1 8.5211947483963009e+00 1.5683254473129143e+01 2.3415355326965170e+01 0 0 0
299 1 9.8545530223118067e+00 1.7108984585410766e+01 2.5141872843080058e+01 0 0 0
314 1 1.6348669699470229e+00 1.8464424360801793e+01 2.6328667834736162e+01 0 0 0
278 1 4.7947994191196797e+00 1.8316659841516660e+01 2.3491506560119038e+01 0 0 0
321 1 6.7418348781636555e+00 1.9471396467628992e+01 2.4961451889074205e+01 0 0 0
313 1 8.0340156064917618e+00 1.7954303541367356e+01 2.6659602700808215e+01 0 0 0
276 1 1.8534905835236473e+00 2.1347172366317931e+01 2.3463682418497218e+01 0 0 0
323 1 3.3342116564549737e+00 2.2898722892358204e+01 2.4906152193072490e+01 0 0 0
317 1 5.0037674938663086e+00 2.1160659519725662e+01 2.6421323781991095e+01 0 0 0
289 1 9.1974149272431767e+00 2.2758288132371838e+01 2.4712181284858179e+01 0 0 0
182 1 1.7284403049448966e+00 2.7185893965350186e+01 2.3783894779685117e+01 0 -1 0
306 1 1.9379074885880927e+00 2.4446547064943868e+01 2.6247975830480627e+01 0 0 0
288 1 4.7325954968332251e+00 2.4531131730755117e+01 2.3646037852114439e+01 0 0 0
215 1 6.6210850218815329e+00 2.6325914006344910e+01 2.5231660920669068e+01 0 -1 0
216 1 4.2627134437208039e+00 2.7474701961806023e+01 2.6592380664068703e+01 0 -1 0
187 1 8.1812445773387878e+00 2.7300998754266836e+01 2.3367738536138461e+01 0 -1 0
308 1 7.8834658118805558e+00 2.4306924359833989e+01 2.6524309691096050e+01 0 0 0
221 1 1.6192794492526781e+00 3.0656566540290576e+01 2.6456835744540509e+01 0 -1 0
214 1 3.1310507276467403e+00 2.9069601693199129e+01 2.5072110197026312e+01 0 -1 0
224 1 7.7077077186039800e+00 3.0460333993766003e+01 2.6398851838617421e+01 0 -1 0
209 1 9.2970252309478649e+00 2.9368617489814508e+01 2.4725046614224656e+01 0 -1 0
222 1 3.2191438373200314e+00 1.5348698172506161e+00 2.8038051432294022e+01 0 0 0
227 1 1.6003503512769737e+00 3.2223153497449379e+00 2.9304320262858610e+01 0 0 0
225 1 9.3722171713164073e+00 1.4372169437310303e+00 2.8096504687282728e+01 0 0 0
232 1 7.9820592869494567e+00 2.6446849102185306e+00 2.9671640403115884e+01 0 0 0
245 1 3.3870721853078574e+00 4.6027521954305417e+00 3.0874342130026861e+01 0 0 -1
231 1 6.3371023951855916e+00 4.7447223243395449e+00 2.7851579772280289e+01 0 0 0
230 1 4.5531033481234600e+00 6.2103238725212186e+00 2.9153476168507719e+01 0 0 0
244 1 9.1410327222949945e+00 4.3923772934984306e+00 3.1008345796252680e+01 0 0 -1
236 1 3.0308152579842695e+00 8.0118828139060074e+00 2.7624971506652876e+01 0 0 0
239 1 3.9326247654622692e-01 7.6610414847847155e+00 3.1020706835824214e+01 0 0 -1
237 1 1.4906924843325324e+00 9.4229540974975308e+00 2.9343112219792765e+01 0 0 0
242 1 6.0404685271909218e+00 7.6920737162402375e+00 3.0919782780378448e+01 0 0 -1
235 1 9.3294910929124946e+00 7.8236340340043968e+00 2.8113353015295349e+01 0 0 0
234 1 7.7843072105859994e+00 9.4296060704371314e+00 2.9505467502478123e+01 0 0 0
220 1 3.3747822806688514e+00 1.0504556951795909e+01 3.0754104076754022e+01 0 0 -1
297 1 2.8935427091227774e+00 1.3756884867757673e+01 2.8257052406296825e+01 0 0 0
301 1 6.5058828295236761e+00 1.1043783799318442e+01 2.8102681600407450e+01 0 0 0
300 1 4.9054879135590523e+00 1.2818695460422784e+01 2.9786157897490437e+01 0 0 0
303 1 9.3472224067421461e+00 1.3843824654455181e+01 2.7614156737054550e+01 0 0 0
307 1 1.5350965056511359e+00 1.5416528305710955e+01 2.9667438882378850e+01 0 0 0
310 1 6.5720953840118534e+00 1.6489768992431635e+01 2.8469912411051098e+01 0 0 0
312 1 8.2701528080890760e+00 1.4838495839806532e+01 2.9892659347491765e+01 0 0 0
316 1 3.4290415892992487e+00 1.9575727993373974e+01 2.7675265890040073e+01 0 0 0
322 1 3.2837156852269822e-01 1.9947047762431527e+01 3.0919313068057519e+01 0 0 -1
311 1 4.8814932949693750e+00 1.8298269938162321e+01 2.9553036694778804e+01 0 0 0
325 1 6.3887858304552987e+00 2.0288449081785963e+01 3.1015311214939675e+01 0 0 -1
318 1 9.6227299557841821e+00 1.9634526858524648e+01 2.7895880800210790e+01 0 0 0
315 1 1.8832034208151396e+00 2.1233796809202843e+01 2.9066498155272306e+01 0 0 0
324 1 3.3066576004450390e+00 2.2662704910817350e+01 3.0894563881478117e+01 0 0 -1
320 1 6.5185096741767659e+00 2.2664833282948607e+01 2.8148608817912443e+01 0 0 0
319 1 8.3487928528494493e+00 2.1414067385843847e+01 2.9806306628938160e+01 0 0 0
298 1 3.1406936297198840e+00 2.5784158749825416e+01 2.8129616082316954e+01 0 -1 0
243 1 3.6316936789870802e-01 2.6091948414917805e+01 3.1013872378037927e+01 0 -1 -1
304 1 4.8483458582435590e+00 2.4252205955070437e+01 2.9466469762126387e+01 0 0 0
218 1 7.7510245113727843e+00 2.7530606107563333e+01 2.9351286109942919e+01 0 -1 0
219 1 9.3530578207502142e+00 2.6100916529991633e+01 2.7943842218593119e+01 0 -1 0
246 1 3.0034735822594469e+00 2.9514516963565661e+01 3.1037482411514791e+01 0 -1 -1
213 1 1.7756878803146376e+00 2.7778157777252733e+01 2.9477050487873576e+01 0 -1 0
223 1 4.8533283522057653e+00 3.0650096362845524e+01 2.9584306526531300e+01 0 -1 0
217 1 6.0468749613991912e+00 2.8695591875971793e+01 2.7906884295587375e+01 0 -1 0
240 1 9.2714463541236949e+00 2.9092266843449217e+01 3.0834643874175743e+01 0 -1 -1
340 1 1.1196181125529435e+01 2.8935847227895266e+00 1.5994494221821012e+00 0 0 0
339 1 1.5363162814363051e+01 1.1646838206049916e+00 3.4095930741022880e+00 0 0 0
345 1 1.7334733746539730e+01 2.7640991494627563e+00 2.2184829589851915e+00 0 0 0
334 1 1.8679716091849667e+01 1.5079057429834688e+00 4.8437695177395035e-01 0 0 0
342 1 1.2378605604407390e+01 4.3538446011773022e+00 3.2034546621974811e+00 0 0 0
343 1 1.4004791703347195e+01 5.9610704045947109e+00 1.8770296551310699e+00 0 0 0
326 1 1.5698876694380861e+01 4.4735858905659933e+00 5.4097521304675089e-01 0 0 0
348 1 1.8775661794522293e+01 4.3906590933820340e+00 3.5382046547735397e+00 0 0 0
335 1 1.1114200553765679e+01 9.3498935274739043e+00 1.8671876120281012e+00 0 0 0
349 1 1.2570494469799840e+01 7.4285664727966001e+00 5.1440746638150792e-01 0 0 0
333 1 1.5551805436174432e+01 7.5714657337201219e+00 3.3012983170340942e+00 0 0 0
347 1 1.7097030511211223e+01 9.1508913020109475e+00 1.8538856643502857e+00 0 0 0
352 1 1.2372987683455460e+01 1.0639250827524943e+01 3.5497161396459966e+00 0 0 0
404 1 1.3732280492999729e+01 1.2106548477036144e+01 1.7197226671224100e+00 0 0 0
406 1 1.5255756809692981e+01 1.3915241187532288e+01 2.9298593769642962e+00 0 0 0
429 1 1.5474552774014594e+01 1.0721755187674001e+01 3.5517132283811642e-01 0 0 0
402 1 1.8506201072299991e+01 1.0816553631758566e+01 2.9972009612574930e+00 0 0 0
410 1 1.0900240620080414e+01 1.5315519196853664e+01 2.2913218283815300e+00 0 0 0
411 1 1.2837159878006130e+01 1.7142698850716368e+01 3.6482047007240705e+00 0 0 0
407 1 1.2657067886407489e+01 1.4209101442429976e+01 6.2234165943346409e-01 0 0 0
409 1 1.6007767931260286e+01 1.6562318470676889e+01 3.5682613266493035e-01 0 0 0
414 1 1.7377988347764592e+01 1.4860263348846258e+01 1.6382825200588536e+00 0 0 0
416 1 1.8778596402399195e+01 1.6638673512472284e+01 3.1852434134508329e+00 0 0 0
412 1 1.4689192390427888e+01 1.8538015244985079e+01 1.8280805730513576e+00 0 0 0
421 1 1.5892231658683736e+01 2.0320775891513264e+01 3.6511690981446701e+00 0 0 0
417 1 1.8626475788402860e+01 2.0113956261034676e+01 3.3537272366105197e-01 0 0 0
419 1 1.1086927134797634e+01 2.1340251375142024e+01 1.8417225962902386e+00 0 0 0
426 1 1.2840417847981758e+01 2.3003219726462376e+01 3.1872937420188707e+00 0 0 0
428 1 1.5900082686416228e+01 2.3122533756109153e+01 2.7702388097796637e-01 0 0 0
422 1 1.7349182110153862e+01 2.1864216785713282e+01 1.8822875565820811e+00 0 0 0
423 1 1.9050875201587463e+01 2.2956935802150422e+01 3.5252812107440210e+00 0 0 0
408 1 1.3926143340338260e+01 2.5025336645526082e+01 1.8742499917666755e+00 0 0 0
327 1 1.5646982480093911e+01 2.6283901379378396e+01 3.2330327370410608e+00 0 -1 0
355 1 1.8924977076184280e+01 2.6230775967461128e+01 5.2960044096632375e-01 0 -1 0
329 1 1.2590892519031859e+01 2.9109169282778087e+01 3.3693840220688172e+00 0 -1 0
328 1 1.0932068459009631e+01 2.7860081177754896e+01 1.5274158767436909e+00 0 -1 0
337 1 1.3989196127211912e+01 3.0743622221954595e+01 1.4772351609074763e+00 0 -1 0
332 1 1.9000937294815433e+01 2.9137622157160447e+01 3.0016940302658486e+00 0 -1 0
331 1 1.6992332367453876e+01 2.7772207154545690e+01 1.4853258354885288e+00 0 -1 0
380 1 1.2667660294627149e+01 1.8555527392373869e+00 7.0241088845288289e+00 0 0 0
344 1 1.4132809212243021e+01 3.2893174233800493e+00 4.8422914729160738e+00 0 0 0
367 1 1.8856212584189603e+01 1.4127392680747506e+00 6.4816427089151878e+00 0 0 0
341 1 1.1078076793048911e+01 5.8992736430263060e+00 4.6835085826852465e+00 0 0 0