
# Create simulation box of size ~50 x 30 x 30 Angstrom
#
lattice	            sc 1
Lattice spacing in x,y,z = 1 1 1
region 	            all block 0 ${LEN} 0 ${WIDTH} 0 ${WIDTH} units box
region 	            all block 0 50.0180991944182 0 ${WIDTH} 0 ${WIDTH} units box
region 	            all block 0 50.0180991944182 0 31.2613119965131 0 ${WIDTH} units box
region 	            all block 0 50.0180991944182 0 31.2613119965131 0 31.2613119965131 units box
create_box          1 all
Created orthogonal box = (0 0 0) to (50.0181 31.2613 31.2613)
  5 by 1 by 2 MPI processor grid

# fill box with randomly distributed atoms
#
create_atoms        1 random 1565 63782 all
Created 1565 atoms
  Time spent = 0.00181937 secs
mass                1 18.015
group               water region all
1565 atoms in group water

# Define potential
#
pair_style          sw
pair_coeff          * * mW_real.sw mW
Reading potential file mW_real.sw with DATE: 2019-02-27

# Run minimization
#
minimize            1.0e-8 1.0e-8 10000 1000
WARNING: Using 'neigh_modify every 1 delay 0 check yes' setting during minimization (../min.cpp:168)
Neighbor list info ...
  update every 1 steps, delay 0 steps, check yes
  max neighbors/atom: 2000, page size: 100000
  master list distance cutoff = 6.3065
  ghost atom cutoff = 6.3065
  binsize = 3.15325, bins = 16 10 10
  1 neighbor lists, perpetual/occasional/extra = 1 0 0
  (1) pair sw, perpetual
      attributes: full, newton on
      pair build: full/bin/atomonly
      stencil: full/bin/3d
      bin: standard
Per MPI rank memory allocation (min/avg/max) = 4.204 | 4.205 | 4.206 Mbytes
Step Temp E_pair E_mol TotEng Press 
       0            0    7181163.5            0    7181163.5     13587162 
     662            0   -17522.647            0   -17522.647   -1757.6158 
Loop time of 0.824013 on 10 procs for 662 steps with 1565 atoms

99.5% CPU use with 10 MPI tasks x no OpenMP threads

Minimization stats:
  Stopping criterion = max force evaluations
  Energy initial, next-to-last, final = 
         7181163.53943     -17522.5916251     -17522.6469263
  Force two-norm initial, final = 3.88443e+08 1.55399
  Force max component initial, final = 2.18607e+08 0.196173
  Final line search alpha, max atom move = 0.126158 0.0247488
  Iterations, force evaluations = 662 1000

MPI task timing breakdown:
Section |  min time  |  avg time  |  max time  |%varavg| %total
---------------------------------------------------------------
Pair    | 0.55436    | 0.66296    | 0.73546    |   6.9 | 80.45
Neigh   | 0.0086219  | 0.010289   | 0.011403   |   0.8 |  1.25
Comm    | 0.057247   | 0.11535    | 0.22224    |  15.3 | 14.00
Output  | 0          | 0          | 0          |   0.0 |  0.00
Modify  | 0          | 0          | 0          |   0.0 |  0.00
Other   |            | 0.03542    |            |       |  4.30

Nlocal:    156.5 ave 169 max 142 min
Histogram: 1 1 0 1 1 1 1 3 0 1
Nghost:    735.3 ave 769 max 701 min
Histogram: 2 2 0 0 0 1 2 1 0 2
Neighs:    0 ave 0 max 0 min
Histogram: 10 0 0 0 0 0 0 0 0 0
FullNghs:  4959 ave 5565 max 4251 min
Histogram: 1 0 1 1 1 1 2 2 0 1

Total # of neighbors = 49590
Ave neighs/atom = 31.6869
Neighbor list builds = 34
Dangerous builds = 0

# Add velocity/set timestep
#
velocity            all create ${TEMP} 120598 rot yes dist gaussian
velocity            all create 280 120598 rot yes dist gaussian
timestep            10.0

# Define output
#
compute	            1 all msd
thermo	            50
thermo_style        custom step temp press vol etotal ke pe c_1[4]

# Neighbor lists
#
neigh_modify        delay 0 every 1 check yes

# Set fixes
#
fix                 1 all momentum 10 linear 1 1 1 rescale
fix                 2 all nve
fix                 3 all temp/csvr ${TEMP} ${TEMP} 500.0 928347
fix                 3 all temp/csvr 280 ${TEMP} 500.0 928347
fix                 3 all temp/csvr 280 280 500.0 928347
fix                 4 all press/berendsen iso ${PRES} ${PRES} 1000.0 modulus 20000
fix                 4 all press/berendsen iso 0 ${PRES} 1000.0 modulus 20000
fix                 4 all press/berendsen iso 0 0 1000.0 modulus 20000

# Run 1 ns equilibration
#
dump                1 all atom 1000 eq.water.${NAME}.dump
dump                1 all atom 1000 eq.water.setup_atoms_280K_00.dump
run                 100000
Per MPI rank memory allocation (min/avg/max) = 3.454 | 3.455 | 3.456 Mbytes
Step Temp Press Volume TotEng KinEng PotEng c_1[4] 
     662          280   -536.88376    48881.169   -16217.291    1305.3563   -17522.647            0 
     700    183.77864   -349.41935    48743.518   -15745.833    856.77362   -16602.607   0.38316941 
     750     213.0994   -11.356823    48527.864   -15368.421     993.4666   -16361.887   0.90402619 
     800    241.42629   -90.309935    48256.106   -15123.608    1125.5262   -16249.134    1.5990929 
     850    247.74475    155.64325    48113.448   -15003.247    1154.9828   -16158.229    2.4312214 
     900    256.64906   -68.273821    47921.486   -14885.301    1196.4946   -16081.795    3.3426754 
     950    266.87896   -414.18806    47690.035   -14794.875    1244.1862   -16039.061    4.3477905 
    1000     277.7198   -248.34271    47406.275   -14701.286    1294.7261   -15996.012    5.6481438 
    1050    273.20851   -291.70667    47237.104   -14701.275    1273.6945   -15974.969    6.9887859 
    1100    271.08983   -68.121521    47183.589   -14678.774    1263.8172   -15942.591    8.3327036 
    1150    274.10747    74.874759    47124.346   -14671.785    1277.8854    -15949.67    9.6801473 
    1200    268.68335    31.828455    47097.856   -14721.177    1252.5983   -15973.775    11.101085 
    1250     265.0489    -196.2483     47048.38   -14762.328    1235.6545   -15997.983    12.216134 
    1300    267.11809   -250.02475    46845.473   -14715.462     1245.301   -15960.763     13.43042 
    1350    283.31379     300.9535    46838.404   -14715.407    1320.8052   -16036.212    14.946577 
    1400    265.39904   -335.09289    46716.587   -14721.909    1237.2869   -15959.196     16.34916 
    1450    264.51285    192.51249    46681.974     -14755.6    1233.1554   -15988.755    18.150654 
    1500    275.35706   -370.11154    46631.049   -14697.697     1283.711   -15981.408    19.719291 
    1550    276.09277   -166.22922    46613.474   -14626.726    1287.1409   -15913.867    21.178909 
    1600    279.12125     264.3853     46620.81   -14557.369    1301.2596   -15858.629    22.815589 
    1650    282.39582   -79.758473    46701.856   -14551.588    1316.5256   -15868.114    24.555966 
    1700    284.05703    105.95202    46835.804   -14535.378    1324.2702   -15859.648     26.63678 
    1750    273.95818     76.12286    47037.253   -14618.766    1277.1894   -15895.956    28.489457 
    1800    272.36235   -214.04716     46991.28   -14647.112    1269.7497   -15916.862    30.156672 
    1850    274.21091   -257.81838    46746.792   -14651.374    1278.3677   -15929.742    31.729366 
    1900    267.64549    170.95186    46620.436   -14644.222    1247.7598   -15891.982    32.872581 
    1950    280.05514   -22.757528    46642.462   -14586.569    1305.6134   -15892.183    34.329634 
    2000    274.56433     281.0148    46539.982   -14590.131    1280.0153   -15870.146    35.754214 
    2050    275.80223    39.463528    46644.578   -14535.183    1285.7864    -15820.97    37.335341 
    2100    290.51758     297.7095    46785.916   -14495.711    1354.3891     -15850.1    38.866649 
    2150    276.36996    166.75525     46784.07   -14561.825    1288.4331   -15850.258     40.18073 
    2200    283.35699    301.23596    46774.899     -14542.9    1321.0066   -15863.907    40.803202 
    2250    278.59454    17.526095    46684.259   -14570.566    1298.8041   -15869.371    42.611421 
    2300    290.46685    28.169638    46734.739   -14574.467    1354.1527    -15928.62    44.458363 
    2350    285.27361    158.71015    46963.363   -14559.798    1329.9418    -15889.74    45.582244 
    2400    289.57723   -426.11159    47049.881   -14547.008    1350.0052   -15897.013    46.952928 
    2450    282.01078   -331.12005    46721.818    -14577.22    1314.7305   -15891.951    48.063635 
    2500    286.37307    69.690414    46752.866   -14516.701    1335.0675   -15851.769    49.830273 
    2550    293.27966   -11.741425     46883.81   -14494.761     1367.266   -15862.027    51.181879 
    2600    287.64076    261.19006    46999.885   -14490.587    1340.9774   -15831.565    52.274934 
    2650    288.87242    42.876724     46997.62   -14473.811    1346.7195   -15820.531    53.342449 
    2700    280.86342    106.22622    46893.921   -14507.711    1309.3816   -15817.093    54.650094 
    2750    286.15569    138.85475    46823.199   -14490.541    1334.0541   -15824.595    56.200386 
    2800    284.51095    55.511011    46857.591   -14524.794    1326.3863    -15851.18    57.265575 
    2850     284.5444    382.16036    46881.299   -14511.544    1326.5423   -15838.087      58.8351 
    2900    286.60669    141.60426    46880.352   -14551.104    1336.1567    -15887.26    60.549434 
    2950     284.0099    302.29011    46987.342   -14577.034    1324.0504   -15901.085    61.910607 
    3000    274.87516   -246.58471    46816.731   -14613.226    1281.4644   -15894.691    63.071932 
    3050    280.42135    116.16377    46714.971   -14571.836    1307.3207   -15879.157    64.656814 
    3100    280.60051   -309.53314    46990.187   -14552.157    1308.1559   -15860.313    66.822532 
    3150    269.99567    -46.98895    46924.213   -14573.738    1258.7163   -15832.454    68.253946 
    3200    279.47154   -99.896129    46857.188   -14600.822    1302.8927   -15903.714    69.672299 
    3250    291.10523    33.661239    46820.178   -14622.592    1357.1288   -15979.721    71.407767 
    3300    268.94175      175.827    46901.055   -14568.789    1253.8029   -15822.592    73.401701 
    3350    277.80278     124.2793    47034.074   -14577.668    1295.1129    -15872.78    75.796586 
    3400     274.6158    40.911643    46945.757   -14591.118    1280.2553   -15871.374    77.582431 
    3450    278.39286    208.99661     46752.08   -14598.868    1297.8639   -15896.732    78.454333 
    3500     277.1433   -202.04252    46789.871   -14636.923    1292.0385   -15928.962     80.05888 
    3550    272.63664   -107.75438    46655.076   -14661.389    1271.0285   -15932.417    81.568754 
    3600    279.88954   -119.75034    46625.498   -14647.522    1304.8414   -15952.363     83.12671 
    3650    277.12035   -167.13699    46598.903   -14650.995    1291.9314   -15942.926    84.018261 
    3700    282.04919   -80.380241    46542.844   -14670.749    1314.9096   -15985.659    85.661799 
    3750    277.22766   -37.134536    46552.609   -14673.089    1292.4317   -15965.521    87.146103 
    3800    277.07625    66.819593    46559.924   -14655.896    1291.7259   -15947.622    88.447952 
    3850    268.52334    267.26478    46588.761   -14612.249    1251.8523   -15864.101    89.773382 
    3900    277.85246   -25.064115    46591.876    -14622.32    1295.3446   -15917.665    91.278942 
    3950    288.72408    204.45867    46740.078   -14570.267    1346.0279   -15916.295    93.472564 
    4000    272.53889   -72.063795    46818.199   -14599.031    1270.5727   -15869.604    95.564352 
    4050    282.41178   -148.07549    47002.313     -14593.3       1316.6     -15909.9    96.704205 
    4100    278.75888    40.624708    46866.938   -14608.772    1299.5702   -15908.342    97.820466 
    4150    278.29781    58.113272    46918.855   -14557.705    1297.4207   -15855.126    99.878781 
    4200    272.28165    9.4777929    46767.525   -14616.919    1269.3735   -15886.293    101.67594 
    4250    286.42948   -103.42852    46785.349   -14581.223    1335.3305   -15916.554    102.67229 
    4300    286.09303    210.31031    46842.503   -14650.438     1333.762     -15984.2     104.7699 
    4350    275.08174   -120.74811    46836.974   -14653.394    1282.4275   -15935.821    106.66267 
    4400    278.52688    98.626583    46815.317   -14660.624    1298.4887   -15959.113    108.50837 
    4450     288.0634    -27.73968    46721.072   -14636.191    1342.9478   -15979.139    109.16337 
    4500    283.72155    40.558886    46833.946   -14623.892    1322.7061   -15946.598     111.9702 
    4550    274.86658   -119.31036    46611.779   -14652.751    1281.4244   -15934.175    113.25367 
    4600    276.14918   -129.49329    46594.848   -14646.691    1287.4039   -15934.095    114.42045 
    4650    271.86859   -358.77295     46504.36   -14651.361    1267.4478   -15918.809    115.10797 
    4700    281.02391   -84.170595    46627.967   -14601.548    1310.1298   -15911.677    116.46135 
    4750    279.85109   -43.790424    46693.899   -14580.607    1304.6621   -15885.269    117.87858 
    4800    281.20188   -21.193913    46613.839   -14616.729    1310.9595   -15927.688    119.47678 
    4850    286.41875    305.39039    46545.093   -14545.866    1335.2805   -15881.147    121.17815 
    4900    282.65996    92.923994    46805.798   -14510.493    1317.7571    -15828.25    123.54505 
    4950    289.63786   -73.746946    47082.864   -14487.244    1350.2879   -15837.532    125.60889 
    5000    298.82624   -193.13081    46934.581   -14462.378     1393.124   -15855.502    127.60904 
    5050    285.83418    189.25405    46947.058   -14505.531    1332.5552   -15838.087    129.10594 
    5100     281.9421   -109.65594    46821.835   -14556.489    1314.4104     -15870.9    130.51037 
    5150    274.87022   -11.525409    46861.947   -14582.839    1281.4414   -15864.281    132.41944 
    5200    280.20905    5.7226351    46798.478    -14615.02    1306.3309   -15921.351    134.23689 
    5250    281.85255   -355.35977    46883.122     -14624.5    1313.9929   -15938.493    136.43954 
    5300    285.37719   -250.10702    46905.586   -14590.533    1330.4247   -15920.958    138.32339 
    5350    274.75434     386.1205    46893.539   -14641.987    1280.9011   -15922.888    139.69457 
    5400    284.51183    167.09279    47069.756    -14593.67    1326.3904   -15920.061    141.71051 
    5450     282.0245    9.5629267    47152.814   -14597.564    1314.7945   -15912.358    143.46098 
    5500    279.71333   -177.11608    47143.808   -14622.059    1304.0199   -15926.079    145.54138 
    5550    283.56103   -222.18586    46984.994   -14645.555    1321.9578   -15967.513    146.35325 
    5600    273.86718   -357.06779    46843.484   -14637.196    1276.7652   -15913.961    148.23978 
    5650    277.17835   -67.022133    46783.594   -14665.746    1292.2018   -15957.947    149.41002 
    5700    275.47687   -123.51548    46815.639   -14621.387    1284.2696   -15905.657    150.50786 
    5750    277.25529    203.42215    46874.814   -14658.513    1292.5605   -15951.074    152.76701 
    5800    277.45222    9.8531707    46904.598   -14598.939    1293.4786   -15892.418    153.82414 
    5850    278.21193    195.65008    46940.751   -14589.415    1297.0204   -15886.435    155.02247 
    5900    276.39387   -110.61215    46832.498   -14638.962    1288.5446   -15927.507    155.73799 
    5950    269.35358    207.80894    46843.843   -14667.634    1255.7229   -15923.357     157.5955 
    6000     275.5546   -125.55956    46929.613   -14642.229    1284.6319   -15926.861    159.12597 
    6050    279.75371    102.22651    46851.311   -14590.031    1304.2081    -15894.24    159.92075 
    6100    273.80147   -29.906291    46844.816   -14616.087    1276.4589   -15892.545    161.11401 
    6150    269.33204    196.08971    46644.288   -14649.492    1255.6225   -15905.115    162.25952 
    6200    272.28196   -386.71677    46657.386   -14633.034    1269.3749   -15902.409    163.56527 
    6250    271.14212    28.301025    46698.357   -14651.332     1264.061   -15915.393     165.3556 
    6300    276.61864    47.907568    46805.229    -14614.49    1289.5925   -15904.083    167.79965 
    6350    280.06199    279.13177    46766.327   -14598.782    1305.6453   -15904.427    169.08339 
    6400    274.72364   -50.102776    46680.399   -14585.071     1280.758   -15865.829     170.9758 
    6450    282.81487    57.315411    46893.209   -14530.649    1318.4792   -15849.128    173.14698 
    6500    288.61893   -98.950472    46842.213   -14537.522    1345.5377    -15883.06    174.77002 
    6550    280.38574   -145.72839    46990.577   -14562.884    1307.1547   -15870.039    176.90653 
    6600    273.25669   -286.31479     46868.37   -14587.637    1273.9191   -15861.556    178.17103 
    6650    270.47188   -110.82067    46699.218   -14640.533    1260.9364   -15901.469    179.48112 
    6700    277.07332     45.90804    46650.263   -14600.862    1291.7122   -15892.574    180.01215 
    6750    278.80063   -625.23985    46812.269   -14626.805    1299.7649    -15926.57    181.28887 
    6800    285.76839     55.12614    46736.602   -14563.757    1332.2485   -15896.006     182.4747 
    6850     284.1066   -7.8917593    46858.747   -14579.817    1324.5012   -15904.318    184.15955 
    6900    276.54193    74.794633    46844.945   -14546.217    1289.2348   -15835.451    185.10762 
    6950    276.34271    382.42024    46950.696   -14524.514    1288.3061    -15812.82    186.41115 
    7000    275.37427    155.51511    47069.222   -14531.989    1283.7912    -15815.78    187.68611 
    7050    285.06254    85.828597    46964.216   -14522.744    1328.9578   -15851.702    188.82167 
    7100     278.4152   -140.16879     46801.37   -14556.854     1297.968   -15854.822     190.7565 
    7150    277.41899    181.99787    46669.709   -14588.651    1293.3237   -15881.975    191.81203 
    7200    280.33438   -53.296731    46779.376    -14584.01    1306.9152   -15890.926     193.4559 
    7250    276.89013    11.289879    46883.332   -14643.558    1290.8582   -15934.416    194.70732 
    7300    273.65194   -11.065333    46902.029   -14656.132    1275.7617   -15931.894    196.91151 
    7350      272.506     143.4976    46913.152   -14683.176    1270.4194   -15953.596    198.40503 
    7400    282.16759   -95.617329     46930.52   -14662.631    1315.4616   -15978.093    200.01083 
    7450    284.31497    105.93184    46997.175   -14646.841    1325.4727   -15972.313    201.51559 
    7500     276.2736   -261.12536    46832.102   -14646.289    1287.9839   -15934.273    203.37141 
    7550    274.85748   -18.091946    46724.396   -14671.471     1281.382   -15952.853    205.53993 
    7600    273.75279    26.735762    46618.863     -14702.1    1276.2319   -15978.332    207.38255 
    7650    272.04925    180.88257    46740.542   -14659.764      1268.29   -15928.054     208.8099 
    7700    279.35894    13.547957    46682.347   -14629.265    1302.3677   -15931.633    210.00068 
    7750    283.71825    211.63674    46786.734   -14582.613    1322.6908   -15905.303    212.23875 
    7800    285.32647   -25.278661    46858.863   -14581.564    1330.1883   -15911.752    214.21534 
    7850    276.06612    482.66393    46851.474   -14570.233    1287.0166   -15857.249    217.04764 
    7900    268.09772   -185.02996     46743.11   -14653.624    1249.8681   -15903.492    217.97919 
    7950    275.45632    100.47388    46767.272   -14647.459    1284.1738   -15931.633    220.09968 
    8000    290.66987   -117.90512    46671.216     -14658.1    1355.0991   -16013.199     221.3193 
    8050     271.0425   -2.8486092    46825.471   -14678.376    1263.5966   -15941.972    224.22967 
    8100    275.62848   -304.38274    46860.059   -14707.367    1284.9764   -15992.343    225.62395 
    8150    275.36972   -13.406637    46780.007   -14697.615      1283.77   -15981.385    227.03465 
    8200    273.58751   -14.467181    46774.121   -14694.471    1275.4614   -15969.932    228.26041 
    8250    273.50946   -47.378815    46797.352   -14691.117    1275.0975   -15966.215    230.34683 
    8300    277.06093   -324.67821    46760.341   -14688.832    1291.6544   -15980.486    231.43815 
    8350    272.20643    278.22061    46693.743   -14649.236    1269.0228   -15918.259    232.79412 
    8400    274.48312    303.05856    46660.887   -14642.733    1279.6367   -15922.369    234.18408 
    8450    275.32315   -27.843814     46594.35   -14577.868    1283.5529   -15861.421     235.5405 
    8500    280.13271   -142.85423    46492.313   -14592.009     1305.975   -15897.984    236.44011 
    8550    279.09785    -76.78702    46542.715   -14576.888    1301.1505   -15878.038    238.26318 
    8600    283.02243    7.3117441    46538.822   -14581.401    1319.4469   -15900.848    241.20674 
    8650    275.03699   -191.57781    46579.731    -14545.31    1282.2188   -15827.529     242.0116 
    8700    272.05939     148.6317    46614.687   -14566.855    1268.3373   -15835.193    243.08356 
    8750    277.38833   -242.49964    46680.311   -14589.025    1293.1807   -15882.206    244.29909 
    8800    277.22525    40.315808    46603.126   -14575.927    1292.4205   -15868.347    244.62965 
    8850     285.0777   -353.54779    46622.237   -14622.053    1329.0285   -15951.082     245.6585 
    8900     268.8446    81.292136    46573.613   -14645.746      1253.35   -15899.096    247.13982 
    8950    276.60482   -11.954109    46648.359   -14621.581    1289.5281   -15911.109     249.4595 
    9000    276.79087    54.210207    46632.549   -14611.444    1290.3954   -15901.839    250.60985 
    9050    279.75351   -217.42086    46608.525   -14602.916    1304.2072   -15907.123    252.08663 
    9100     273.8143    230.05857    46636.118   -14662.119    1276.5187   -15938.638    253.84961 
    9150    277.32849    33.487531    46660.456   -14649.613    1292.9018   -15942.515    255.37361 
    9200    287.84975   -127.69312    46886.041   -14581.929    1341.9518   -15923.881    257.01822 
    9250    286.20239     -248.963    46917.215   -14549.736    1334.2718   -15884.008    259.36505 
    9300    276.20997    236.84126    46881.822   -14610.836    1287.6873   -15898.523    261.26757 
    9350    280.41914    61.546471    47126.935   -14653.774    1307.3104   -15961.084    263.41809 
    9400    280.65449    172.69457    47037.255   -14616.931    1308.4076   -15925.338     265.0678 
    9450    282.86999     108.7294    46904.301   -14589.062    1318.7362   -15907.798    265.44846 
    9500    269.91782    8.3075898    47046.269   -14599.946    1258.3534   -15858.299    267.62514 
    9550    270.34854   -117.73427    47015.533   -14621.376    1260.3613   -15881.738    268.66098 
    9600    279.87882    326.48714    46868.092   -14614.548    1304.7914    -15919.34    269.22432 
    9650     282.1888    229.25558    46940.627   -14578.032    1315.5605   -15893.592    271.57097 
    9700    275.11523   -121.10436    46772.867   -14599.691    1282.5836   -15882.274     271.9018 
    9750    278.62612   -87.201271    46826.071   -14565.584    1298.9513   -15864.535    273.79995 
    9800    273.46368    50.810369    46874.468   -14595.385    1274.8841   -15870.269     274.7617 
    9850    272.48325    237.21887    46924.555   -14606.582    1270.3133   -15876.896    276.76386 
    9900    272.96891   -124.35922    47005.183   -14654.293    1272.5775   -15926.871    278.46622 
    9950    271.40624    76.896738    46856.076   -14656.139    1265.2923   -15921.432    278.97115 
   10000    271.57448    241.49893    46908.489   -14659.751    1266.0767   -15925.827    279.80901 
   10050    270.85445    75.741928    46907.371   -14666.723    1262.7199   -15929.443    280.60726 
   10100      276.643   -9.0491229    46735.636   -14630.147    1289.7061   -15919.854    281.68945 
   10150    281.58122    299.04495    46729.777   -14614.008     1312.728   -15926.736    283.13497 
   10200    276.30129   -287.05872    46641.715   -14660.047     1288.113    -15948.16    284.09865 
   10250    270.87957    -282.9537    46619.507   -14670.797     1262.837   -15933.634     285.2546 
   10300    277.36526    266.28011    46500.166   -14708.354    1293.0732   -16001.428    285.66096 
   10350    285.26241   -44.042173    46597.088    -14608.27    1329.8896    -15938.16     286.5996 
   10400    272.19046    453.22979    46688.458   -14638.405    1268.9484   -15907.353    286.76828 
   10450    282.23009    228.55527    46736.733   -14593.265     1315.753   -15909.018    287.34243 
   10500    280.80704   -93.436514    46803.525   -14597.469    1309.1187   -15906.588    288.59814 
   10550    270.37435   -5.3303944    46845.957   -14565.707    1260.4817   -15826.189    289.98178 
   10600    278.08068   -128.36563    46773.329   -14512.896    1296.4085   -15809.305    290.91981 
   10650    285.55464   -141.63162    46740.936   -14476.699     1331.252   -15807.951    293.34974 
   10700     290.6581    45.800698    46717.091   -14504.239    1355.0443   -15859.283     295.0089 
   10750    290.97756   -271.74283    46686.515   -14525.647    1356.5336    -15882.18    296.53594 
   10800    275.78425    126.19259    46637.433    -14560.82    1285.7026   -15846.523    297.33856 
   10850    283.45442    6.5423814    46760.097   -14565.185    1321.4608   -15886.645    300.05802 
   10900    284.64845    45.896858    46791.968   -14577.161    1327.0273   -15904.188    301.37116 
   10950    274.83206    35.488771    46905.023   -14539.485    1281.2635   -15820.749    303.59469 
   11000    272.63106   -291.97853    46915.768   -14585.428    1271.0024    -15856.43    305.52524 
   11050    284.45334    150.48228    47012.714   -14540.464    1326.1177   -15866.582    307.54279 
   11100    288.41617   -24.548106    46936.883   -14575.989    1344.5924   -15920.582    307.72418 
   11150    274.59725    -304.4298    46889.571   -14612.285    1280.1688   -15892.454    309.21927 
   11200    272.90574   -266.64714    46704.339   -14615.596     1272.283   -15887.879    309.78384 
   11250    281.28896   -17.453364    46667.822   -14552.203    1311.3654   -15863.568    310.02316 
   11300    281.65582   -98.520543    46784.666   -14550.928    1313.0758   -15864.004    313.35609 
   11350    275.17549   -94.624926    46856.646   -14559.148    1282.8645   -15842.013    314.48394 
   11400    274.19521    18.983598    46785.878   -14565.969    1278.2945   -15844.264     316.3945 
   11450    283.87187    -139.1061    46758.772   -14590.454    1323.4069   -15913.861    318.57114 
   11500    282.86883   -203.36325    46854.592   -14613.612    1318.7308   -15932.343    320.77523 
   11550    272.54518   -77.411234    46874.719   -14641.031    1270.6021   -15911.633    323.25275 
   11600    275.75905    142.21666     46758.23   -14631.258    1285.5851   -15916.843    324.85747 
   11650    279.42852   -37.979327    46690.389   -14609.035    1302.6921   -15911.727    325.73538 
   11700    292.20793   -203.13452    46755.475    -14577.03    1362.2695   -15939.299    327.13211 
   11750     279.8975   -173.70871    46880.663   -14534.053    1304.8785   -15838.931    328.40943 
   11800    272.86952    254.69404    46723.193    -14572.87    1272.1141   -15844.984    330.40062 
   11850    281.32792   -15.727672    46695.602   -14590.688    1311.5471   -15902.235    331.85106 
   11900    284.35757   -303.79675    46724.058   -14560.602    1325.6713   -15886.274    334.02671 
   11950     269.3536    232.18472      46469.2   -14647.211     1255.723   -15902.934    334.62548 
   12000    284.63816   -36.563374    46552.169   -14615.124    1326.9794   -15942.104    336.58894 
   12050    273.79386    194.69842    46592.198   -14626.401    1276.4234   -15902.824    337.24176 
   12100    284.07533    398.25829    46749.429   -14571.869    1324.3555   -15896.224    338.14376 
   12150    290.97423   -100.84124    46880.339   -14504.574     1356.518   -15861.092     339.3853 
   12200    287.20112   -143.42169    46872.638   -14540.298    1338.9279   -15879.225    340.87873 
   12250    275.81847    335.44156    46932.708   -14563.545    1285.8621   -15849.407    342.69241 
   12300    277.76948   -28.210644    46743.556   -14587.282    1294.9577   -15882.239    342.93961 
   12350    286.34568    441.10314    46739.908   -14580.928    1334.9398   -15915.868    343.62341 
   12400    277.78648     105.6417     46828.96    -14583.85    1295.0369   -15878.887    346.38749 
   12450    283.13351     165.6854    47096.982   -14570.096    1319.9647    -15890.06    347.25288 
   12500    277.09134   -331.86318    46949.057   -14632.656    1291.7962   -15924.453    348.88956 
   12550    273.81022    1.1364725    46841.068   -14595.025    1276.4997   -15871.525    349.45844 
   12600    282.67361   -135.35777     46650.46   -14552.874    1317.8207   -15870.695    350.34569 
   12650    289.18984    198.19819    46619.308   -14497.016    1348.1993   -15845.216    353.20967 
   12700    282.24819    59.194108     46537.55   -14552.345    1315.8374   -15868.182    354.76916 
   12750    287.47328   -119.91882    46553.385   -14503.296    1340.1967   -15843.493    357.06857 
   12800    286.88929    105.38613    46637.855   -14534.897    1337.4741   -15872.371    358.31039 
   12850    287.65416    1.0865286    46787.523    -14555.72    1341.0399    -15896.76    360.90181 
   12900    277.17541    191.25004    46736.599   -14617.459    1292.1881   -15909.647    362.64644 
   12950    274.84653   -167.48935     46719.91   -14659.411    1281.3309   -15940.742    363.68436 
   13000    278.56648    159.07161    46843.491   -14595.568    1298.6733   -15894.242    365.21391 
   13050    277.30817   -21.082487    46852.419   -14531.053    1292.8071    -15823.86    366.79136 
   13100    284.61983   -63.376866    46890.361   -14530.976    1326.8939    -15857.87    370.06778 
   13150    285.25346    70.112664    46776.483   -14510.415    1329.8479   -15840.263    371.19398 
   13200    286.85748   -60.174224    46728.441   -14497.539    1337.3258   -15834.865    373.01015 
   13250     289.9835   -103.95645    46892.709   -14484.592    1351.8993   -15836.491    375.71329 
   13300    281.58299   -72.609046     46961.67   -14508.884    1312.7362    -15821.62    378.02789 
   13350      279.246    328.42287    47044.586   -14532.377    1301.8412   -15834.219    380.77249 
   13400    268.97966   -93.363771     47004.64   -14617.136    1253.9797   -15871.116    383.00629 
   13450    275.76019   -62.765561    47007.111   -14598.869    1285.5904   -15884.459    385.36894 
   13500     277.3377   -422.45972    46815.617   -14641.232    1292.9447   -15934.177    385.21345 
   13550    284.90751    258.58603    46840.326   -14602.756    1328.2351   -15930.992    386.34694 
   13600    274.50127   -444.73957    46700.799   -14654.729    1279.7213    -15934.45    386.99355 
   13650    273.34956   -39.259371     46768.14   -14661.059    1274.3521   -15935.411    387.68458 
   13700    278.68345   -257.62971    46870.113   -14608.086    1299.2186   -15907.305     387.5771 
   13750    283.16234   -370.21431    46780.111   -14615.854    1320.0991   -15935.953    388.67467 
   13800    275.29822    191.54505    46699.439   -14596.368    1283.4367   -15879.804    389.92525 
   13850    280.81945    141.29074    46843.657   -14586.809    1309.1766   -15895.985    391.94667 
   13900    265.96321    505.84719    46854.759   -14603.205     1239.917   -15843.122    393.06013 
   13950     276.0255   -170.19808    46869.855   -14563.933    1286.8273    -15850.76    393.84543 
   14000    275.71722   -125.65119    46789.828   -14547.661    1285.3901   -15833.052    394.56344 
   14050    285.33241    225.75298    46814.739   -14518.132    1330.2159   -15848.348    396.21736 
   14100    281.54037   -59.980598    46786.825    -14538.32    1312.5375   -15850.858    398.09247 
   14150     279.3739    74.125089    46812.253   -14553.439    1302.4374   -15855.876    401.11948 
   14200    282.95172   -351.33808    46955.565   -14576.217    1319.1172   -15895.334    401.98781 
   14250     284.9387    63.789167    46844.339    -14573.53    1328.3805    -15901.91    401.53606 
   14300    268.82613    331.17522    46770.379   -14639.558    1253.2639   -15892.822    402.75996 
   14350    270.97878    6.1976769     46793.64   -14672.855    1263.2995   -15936.155    405.16181 
   14400     289.8061    415.19982    46657.385   -14600.529    1351.0723   -15951.601    406.25609 
   14450    281.91884    104.87258     46930.78   -14626.979     1314.302   -15941.281    409.73106 
   14500     282.4266    186.43997    46970.183   -14570.691    1316.6691    -15887.36    410.77997 
   14550    276.08201   -198.67033    46881.393   -14635.512    1287.0907   -15922.603    412.00626 
   14600    281.59856   -337.01942    46705.808   -14602.746    1312.8088   -15915.555    411.64359 
   14650    271.97245    1.9753242     46807.97   -14602.327     1267.932   -15870.259    413.88178 
   14700     290.2245   -94.732163    46749.694   -14605.751    1353.0228   -15958.774    414.81911 
   14750    275.89776    343.32072    46879.159   -14644.312    1286.2317   -15930.543    417.22557 
   14800     273.8685    183.47142    46824.495   -14673.501    1276.7714   -15950.272    418.46855 
   14850    263.17527   -64.391202    46764.046   -14688.448    1226.9197   -15915.368    420.06363 
   14900    266.28918    3.2663032    46795.801   -14697.773    1241.4367    -15939.21    421.94354 
   14950    274.18595    177.00447    46722.641    -14661.23    1278.2513   -15939.481    423.19382 
   15000    272.68813   -267.45548    46716.633   -14694.059    1271.2685   -15965.328    423.91317 
   15050    277.21486    -73.71807    46657.892   -14686.326    1292.3721   -15978.698    423.96405 
   15100    276.85508   -166.19031    46683.108   -14705.017    1290.6948   -15995.711    424.03486 
   15150    272.32933    217.85413    46747.619   -14660.839    1269.5958   -15930.435    425.36647 
   15200    281.66771    81.616041    46867.787   -14648.192    1313.1312   -15961.323    427.94978 
   15250    271.50477   -155.49195    46884.179   -14648.324    1265.7517   -15914.076    428.99636 
   15300    270.56089    9.8294424     46924.67   -14660.355    1261.3513   -15921.707    430.43929 
   15350    283.92274   -182.86545    46882.154   -14614.901    1323.6441   -15938.545    431.47637 
   15400    270.86432    74.447091    46911.301   -14669.081    1262.7659   -15931.847    432.22871 
   15450    274.07021   -116.04444    47005.966   -14620.166    1277.7117   -15897.878    434.09578 
   15500    279.50452    23.722687    46930.145   -14644.381    1303.0464   -15947.428    435.15784 
   15550    271.31724   -193.78221    46879.342   -14649.839    1264.8774   -15914.717    435.48939 
   15600    288.65743   -120.43517    46936.187   -14577.245    1345.7172   -15922.962    437.54804 
   15650    278.18217   -287.23223    46872.098   -14577.793    1296.8816   -15874.675    438.95537 
   15700    275.21077    -210.4924    46812.522   -14632.905     1283.029   -15915.934    439.77582 
   15750    273.57923   -237.14597    46643.952   -14609.214    1275.4228   -15884.637     441.1085 
   15800    274.96438   -280.30905      46608.4    -14616.39    1281.8803   -15898.271    443.60976 
   15850    277.90851    35.869872    46593.336   -14650.019    1295.6058   -15945.625    445.51269 
   15900    265.29724    177.51144    46631.161   -14654.852    1236.8122   -15891.665     447.3321 
   15950    267.35271    170.48753    46692.263   -14675.144    1246.3948   -15921.539    450.04218 
   16000    278.57544    106.89169    46800.511   -14602.298    1298.7151   -15901.013    451.02013 
   16050    274.12927   -94.830115    46864.405   -14584.651    1277.9871   -15862.638    454.37295 
   16100    291.83827    159.08215    46837.513   -14547.133    1360.5462   -15907.679    455.75126 
   16150    271.60906    247.19272    46778.686   -14610.978    1266.2379   -15877.216    458.47897 
   16200    278.15404    77.326514    46871.139   -14619.462    1296.7505   -15916.213    461.14113 
   16250    267.58707    -275.4074    46804.158   -14659.491    1247.4874   -15906.978    463.72067 
   16300    282.40326    106.45155    46714.684   -14608.866    1316.5603   -15925.426    464.52187 
   16350    273.53702   -238.38221    46692.414    -14607.35     1275.226   -15882.576    466.16391 
   16400    285.55064    198.49425    46705.882   -14536.562    1331.2334   -15867.795    468.05471 
   16450     288.9492   -317.94486    46672.718    -14509.69    1347.0774   -15856.768    469.41807 
   16500    283.26643    83.455286    46528.263   -14541.301    1320.5844   -15861.885    468.64386 
   16550    280.76031    324.51336    46611.085   -14534.857    1308.9009   -15843.758    469.99652 
   16600    285.64919    96.845846    46645.028   -14522.361    1331.6928   -15854.054    471.48582 
   16650     279.6876    288.55792     46680.18   -14563.604    1303.8999   -15867.504    474.87762 
   16700    281.44166    64.224818    46962.957   -14548.639    1312.0773   -15860.716    477.96863 
   16750    290.07231    266.08142    46990.456   -14540.116    1352.3133   -15892.429    479.84819 
   16800    281.22565    35.984422     46931.57   -14587.678    1311.0703   -15898.749    480.99249 
   16850     294.5129    91.838145    47018.526   -14539.474    1373.0153   -15912.489    482.08761 
   16900    276.31991   -27.354513    47086.532   -14523.826    1288.1998   -15812.026    483.67093 
   16950    275.13223     117.3745    46904.162   -14563.635    1282.6628   -15846.298     483.7686 
   17000    274.75862    -38.86903     46942.97    -14553.08    1280.9211   -15834.001    484.66869 
   17050    283.12968    51.328015    46972.742   -14517.227    1319.9469   -15837.174    486.27433 
   17100    290.08383   -8.7260323    46937.627    -14484.68     1352.367   -15837.047    487.36435 
   17150    286.52842    73.662889    46892.769   -14493.759    1335.7918   -15829.551    490.14757 
   17200    283.16884   -297.27422    46846.445   -14525.422    1320.1294   -15845.552    491.93025 
   17250    266.90071     169.3498    46777.151   -14555.983    1244.2876   -15800.271    493.82357 
   17300    268.15175   -202.22991    46840.806   -14588.615    1250.1199   -15838.735    494.78855 
   17350    281.46968   -493.79835    46820.374   -14533.968    1312.2079   -15846.176    493.74303 
   17400    287.24332   -115.54217    46617.959   -14552.523    1339.1246   -15891.647    493.79455 
   17450    285.37467   -15.104261    46706.983    -14522.61     1330.413   -15853.023     497.2503 
   17500    276.36195   -150.04439    46663.448   -14557.552    1288.3958   -15845.948    499.65435 
   17550    272.29772   -182.80251    46662.211   -14607.026    1269.4484   -15876.474    501.22096 
   17600    280.91626    85.696752    46736.263   -14544.367    1309.6279   -15853.994    502.10985 
   17650    288.61734   -151.59235    46818.736   -14520.616    1345.5303   -15866.146    504.71915 
   17700    289.43118    188.39859    46768.965   -14549.819    1349.3244   -15899.143    505.26375 
   17750    276.36529    228.62947    46865.323   -14592.092    1288.4114   -15880.504    507.78136 
   17800    275.67483     167.1093    46991.326    -14567.67    1285.1925   -15852.862    509.83151 
   17850    285.17503    178.69389    46971.715   -14580.455    1329.4823   -15909.937    511.80518 
   17900    280.17018   -121.53229    46959.633   -14599.392    1306.1497   -15905.542    512.26404 
   17950    288.00232   -141.60782    46868.431    -14557.34    1342.6631   -15900.004    514.42073 
   18000    289.56543   -62.986494     46799.28   -14530.584    1349.9503   -15880.535    513.89502 
   18050    277.89243    200.36096     46856.32   -14553.235    1295.5309   -15848.766     516.2121 
   18100    275.78878    105.48476    46829.175   -14625.372    1285.7237   -15911.096    516.53141 
   18150    267.89677    -174.2444    46760.076   -14617.427    1248.9312   -15866.359    518.17828 
   18200    277.04824     318.3111    46810.721   -14592.624    1291.5953   -15884.219    517.61471 
   18250    283.54652   -53.782703    46995.433    -14524.95    1321.8902    -15846.84    521.37874 
   18300    280.66868    165.63333      46896.6   -14530.665    1308.4737   -15839.138    522.86572 
   18350    281.31206    107.84968    46919.136   -14525.271    1311.4731   -15836.744    525.16687 
   18400    280.43296   -124.40707     46719.64   -14564.295    1307.3748    -15871.67    525.55316 
   18450    284.94097    229.74667    46661.036   -14517.395    1328.3911   -15845.787    527.75972 
   18500    288.39264   -42.914305    46533.852   -14550.509    1344.4827   -15894.992    529.62918 
   18550     270.6909    87.203598    46750.853   -14567.363    1261.9574    -15829.32    533.01129 
   18600    277.24297    175.52737    46663.508   -14557.928    1292.5031   -15850.431     534.1152 
   18650    281.83644    46.299033    46670.219   -14540.695    1313.9178   -15854.613    535.28879 
   18700    283.70458    160.93841    46591.179   -14540.548     1322.627   -15863.175     536.5485 
   18750    283.82353    101.74981     46695.44   -14519.117    1323.1816   -15842.298    537.49172 
   18800    275.93031   -573.22971    46730.443   -14515.575    1286.3835   -15801.958    540.43225 
   18850    271.59496    26.580265    46681.503   -14575.566    1266.1722   -15841.738    542.97359 
   18900    277.49442    105.80763    46708.475   -14553.675    1293.6754    -15847.35    544.17348 
   18950    282.83981   -114.21746    46541.505   -14575.855    1318.5955   -15894.451    543.39377 
   19000    298.42249    80.352695    46583.961   -14562.424    1391.2418   -15953.665    544.80127 
   19050    269.71326     154.0238    46672.209    -14624.41    1257.3997    -15881.81    548.89601 
   19100    281.28801   -154.98255    46663.301   -14596.552     1311.361   -15907.913     551.2104 
   19150    280.08105     343.4843    46847.011   -14598.661    1305.7342   -15904.395    554.66457 
   19200    281.59413   -261.17748     46826.19   -14561.773    1312.7882   -15874.561    556.33174 
   19250    284.25697   -275.90844    46772.686   -14531.659    1325.2023   -15856.861    557.41092 
   19300    284.41068   -481.95912    46867.101   -14522.651    1325.9189    -15848.57    559.08095 
   19350    285.71763   -162.30295    46787.837   -14528.288    1332.0119     -15860.3      559.113 
   19400    295.18369    432.59218    46944.981   -14483.473    1376.1425   -15859.616     559.4934 
   19450    277.67223    347.64644    46928.423   -14554.159    1294.5043   -15848.663    560.99639 
   19500    292.58692    80.616126    46798.241   -14502.913    1364.0364   -15866.949    560.92797 
   19550    280.74589    13.651823    46907.915   -14575.927    1308.8337    -15884.76    563.63984 
   19600    275.13195   -6.2829848    46837.587   -14566.677    1282.6615   -15849.339    564.05171 
   19650    279.03964    394.28041    46789.936   -14557.642    1300.8792   -15858.521    565.10873 
   19700    284.06626   -48.813012    46689.614   -14544.755    1324.3132   -15869.068    567.01579 
   19750    290.44039   -176.31749    46716.313   -14513.532    1354.0293   -15867.562    569.25694 
   19800    284.27225    234.10124    46748.385   -14556.096    1325.2735    -15881.37    571.48483 
   19850    279.12772   -1.4324268     46781.71   -14567.502    1301.2898   -15868.792    573.42842 
   19900    284.17012   -11.343699    46554.983   -14568.056    1324.7974   -15892.853    572.82172 
   19950     279.2097    483.42245    46574.812   -14609.652     1301.672   -15911.324    576.45271 
   20000    280.92132   -25.131423    46528.413   -14635.722    1309.6515   -15945.373     579.9955 
   20050    289.61592    19.882559    46541.531   -14565.363    1350.1856   -15915.549    581.46503 
   20100    276.46595   -193.38375    46511.183   -14611.362    1288.8806   -15900.243    581.56733 
   20150    274.01795   -27.088154    46559.636    -14646.52    1277.4681   -15923.988    583.62482 
   20200    274.32904    175.91962    46554.351   -14630.309    1278.9184   -15909.228    586.12587 
   20250    280.16267    2.4582696    46715.446   -14602.796    1306.1147   -15908.911    589.28321 
   20300    284.82175    234.61801    46853.132    -14614.65    1327.8353   -15942.485    592.40242 
   20350    272.34074   -367.03276      46710.1    -14614.17     1269.649   -15883.819    591.99701 
   20400    278.62845    104.39563     46684.18   -14614.836    1298.9622   -15913.798    593.40348 
   20450     273.8606    292.30185    46662.578   -14606.165    1276.7345     -15882.9    591.52312 
   20500    272.83801    522.98859    46867.554   -14602.471    1271.9672   -15874.438    594.31517 
   20550    275.50372   -34.607715    47006.365   -14614.192    1284.3947   -15898.587    594.79854 
   20600    278.45683    158.75642    46934.587   -14649.974    1298.1621   -15948.136    596.11987 
   20650     280.7177   -272.12827    46834.955   -14655.504    1308.7022   -15964.206    595.04432 
   20700    279.63525    231.24508    46963.128   -14567.065    1303.6559   -15870.721    598.29181 
   20750    278.07183    188.54666    46888.396   -14566.112    1296.3672    -15862.48    598.34124 
   20800    280.16595    442.86708    47005.702    -14562.79      1306.13    -15868.92    599.37047 
   20850    275.31137   -2.6679873    46953.736   -14615.886     1283.498   -15899.384    599.84379 
   20900    272.65894   -133.25163    46747.046   -14610.272    1271.1324   -15881.405    600.46549 
   20950    279.48071    -31.14725     46708.08   -14602.677    1302.9354   -15905.613    600.81473 
   21000    275.27411   -256.34415    46728.766   -14682.412    1283.3243   -15965.737    601.34983 
   21050    283.53386      375.506    46779.312   -14677.289    1321.8312    -15999.12    602.01655 
   21100    266.86516    116.48864    46821.348   -14700.264    1244.1219   -15944.386    603.55515 
   21150    269.31889     184.8652    46734.235   -14672.939    1255.5612     -15928.5    604.23692 
   21200    278.79961   -86.811763     46930.94   -14653.801    1299.7601   -15953.561    607.31198 
   21250    280.61263   -403.12545    46909.391   -14617.816    1308.2124   -15926.029     607.5456 
   21300    275.38057   -250.02083    46896.108    -14633.37    1283.8206   -15917.191    609.90013 
   21350    280.01552   -4.4529562    46910.295   -14623.596    1305.4287   -15929.025    611.67809 
   21400    267.41598    48.770303    46843.249   -14611.543    1246.6898   -15858.232    612.16874 
   21450    280.03029    58.619449    46872.856   -14598.354    1305.4975   -15903.851    614.64301 
   21500    279.74986   -140.57138    46833.957   -14614.489    1304.1902   -15918.679    615.75391 
   21550      276.825    8.5081122     46678.41   -14602.336    1290.5545    -15892.89    616.67607 
   21600     281.2292    95.441878    46781.409    -14565.75    1311.0869   -15876.837    617.59551 
   21650    275.00499   -279.03139    46761.013   -14575.088    1282.0697   -15857.157    617.32274 
   21700    277.52482    26.901796    46748.512   -14531.825    1293.8171   -15825.642    617.26804 
   21750    281.86248    118.99913    46718.244   -14514.889    1314.0392   -15828.928    618.02922 
   21800    284.47156    117.82867    46813.368    -14522.64    1326.2027   -15848.843    620.41746 
   21850    290.78327     -99.7699    46882.058   -14515.561    1355.6278   -15871.188    622.64298 
   21900    283.56272   -336.27747    46828.236   -14569.934    1321.9657     -15891.9     623.0706 
   21950    280.09961   -3.8318544    46928.297   -14563.532    1305.8207   -15869.353    625.12921 
   22000     278.9471   -189.65072    46802.563   -14603.513    1300.4477   -15903.961    624.14173 
   22050    279.10077   -214.59654    46733.502   -14641.437    1301.1641   -15942.601    624.76839 
   22100    277.21502    157.70423    46786.851   -14571.961    1292.3728   -15864.334    626.84068 
   22150    279.05275   -91.090627    46877.898    -14617.61    1300.9403   -15918.551     627.6328 
   22200    282.05703    363.14791    47086.848   -14592.711    1314.9462   -15907.657    631.79507 
   22250    280.49551   -168.61645    46993.284   -14559.236    1307.6664   -15866.903    630.78003 
   22300    282.80746    120.43028    47022.467   -14602.246    1318.4447   -15920.691    630.99358 
   22350    281.35827   -353.32022    46928.356   -14601.537    1311.6886   -15913.226    632.76788 
   22400    278.14462    178.79706     46846.45    -14559.64    1296.7066   -15856.347    632.21544 
   22450     282.4757   -444.05381    46911.648   -14557.662     1316.898    -15874.56    633.58588 
   22500    277.50243   -200.12295    46852.119   -14578.767    1293.7127    -15872.48    635.09724 
   22550    286.61369   -30.736654    46771.255   -14508.779    1336.1893   -15844.968    635.50932 
   22600     286.3076   -435.47145    46581.916   -14540.848    1334.7623   -15875.611    634.77319 
   22650     271.5621   -237.03997    46782.943   -14595.099    1266.0189   -15861.118     639.2975 
   22700    285.37107    70.240576    46598.047   -14524.541    1330.3962   -15854.938    638.43007 
   22750    285.93004    139.11484    46649.125   -14569.974    1333.0021   -15902.976    641.88288 
   22800    283.75283    122.29153    46738.517    -14515.13     1322.852   -15837.982    643.07388 
   22850    280.56049    136.08511    46831.239   -14564.887    1307.9693   -15872.857      646.309 
   22900    282.15822   -316.42447     46770.89   -14575.655    1315.4179   -15891.073    648.90761 
   22950    279.64404    -45.94139    46801.423   -14567.442    1303.6968   -15871.139    650.32162 
   23000    284.97043   -223.74826    46802.915   -14546.118    1328.5284   -15874.646    652.28175 
   23050    283.86641    -81.96342    46797.663   -14609.562    1323.3815   -15932.943    653.74921 
   23100    269.44645   -107.63702    46670.098   -14646.198    1256.1558   -15902.354    652.14465 
   23150    289.15506   -179.16175    46693.001   -14574.869    1348.0371   -15922.906    653.53558 
   23200    277.38466    232.53676    46669.022   -14568.895    1293.1637   -15862.059    657.00563 
   23250     279.4825    62.323369    46510.521   -14592.554    1302.9438   -15895.497    654.04411 
   23300     277.4302    23.905817    46657.418   -14593.233     1293.376   -15886.609    657.78351 
   23350    272.90542    222.72926    46724.785    -14583.74    1272.2815   -15856.021    659.26983 
   23400    284.01675    41.960764    46745.221   -14530.818    1324.0824   -15854.901    661.18102 
   23450    284.72138    49.699309    46726.553   -14548.687    1327.3674   -15876.054    661.94353 
   23500    274.92987    191.41047    46525.473   -14559.754    1281.7195   -15841.474      661.098 
   23550    275.56531    124.70902    46642.455   -14544.293    1284.6819   -15828.975    663.75136 
   23600    291.00395   -35.167302    46856.867   -14542.891    1356.6566   -15899.547    667.74189 
   23650    278.15446   -80.061279    46887.028   -14596.262    1296.7524   -15893.014    667.90897 
   23700    278.71762   -8.2798449    46849.093   -14559.779    1299.3779   -15859.157    666.82054 
   23750     266.8063   -380.65923    46716.942   -14641.404    1243.8475   -15885.251    667.01255 
   23800    276.89442    131.97712    46634.465   -14624.182    1290.8782    -15915.06    666.32646 
   23850    266.63843    169.90721    46734.455   -14612.424    1243.0649   -15855.488    669.90357 
   23900    273.98837     62.88127    46745.659   -14622.729    1277.3302    -15900.06    670.98902 
   23950    282.61627   -463.78567    46710.244   -14579.094    1317.5534   -15896.647     671.5906 
   24000    283.27975    264.98434    46608.396   -14556.845    1320.6465   -15877.491     673.1426 
   24050    292.55487   -71.462306    46651.218    -14530.45     1363.887   -15894.337    674.49565 
   24100    285.01725   -106.44505     46544.21   -14567.085    1328.7467   -15895.832    676.85961 
   24150    276.31816    310.62082    46523.929   -14577.409    1288.1917   -15865.601    679.11186 
   24200    272.17151   -82.033223    46541.393   -14640.094      1268.86   -15908.954    681.21444 
   24250    270.36146   -95.220523    46652.038   -14645.127    1260.4216   -15905.548    683.90791 
   24300    276.25924    444.06961    46717.676   -14596.673     1287.917    -15884.59    686.04799 
   24350     279.6473    183.13263    46871.021    -14621.14    1303.7121   -15924.852    687.85911 
   24400     275.7753   -256.95778     46826.03   -14651.743    1285.6609   -15937.404    689.75356 
   24450    271.87405    28.359445    46726.131   -14679.598    1267.4733   -15947.071    691.76296 
   24500    286.61193    150.75231      46720.8   -14610.468    1336.1811   -15946.649    691.98794 
   24550    271.42805      229.414     46884.51   -14654.789     1265.394   -15920.183     693.7494 
   24600    281.35151    -6.519697     46874.13   -14619.043     1311.657     -15930.7    694.61647 
   24650    281.68472    -38.73775    46868.865   -14602.626    1313.2105   -15915.837    694.62021 
   24700    271.46011    241.17755    46875.023   -14626.093    1265.5435   -15891.636    695.21225 
   24750    289.14973   -320.45925    46732.323   -14581.233    1348.0123   -15929.245    696.12772 
   24800    276.98493   -39.991206    46724.242    -14647.79    1291.3001    -15939.09    697.46187 
   24850    272.97875    158.54707    46996.634   -14611.329    1272.6234   -15883.952    703.26116 
   24900    286.50132    114.10799     46955.05   -14581.865    1335.6654   -15917.531    703.60834 
   24950    285.72768   -341.35994    46940.149   -14559.456    1332.0587   -15891.515    704.02112 
   25000    275.75455    146.92716    46743.591   -14532.008    1285.5641   -15817.572    703.41304 
   25050     285.1943   -253.19176    46708.605    -14552.12    1329.5721   -15881.692    704.69631 
   25100     283.6653    108.48327    46767.155   -14579.132    1322.4439   -15901.575    705.31958 
   25150    269.54082    399.93869    46878.259   -14618.467    1256.5958   -15875.063    708.05162 
   25200    278.69333    41.115153    46911.007   -14622.454    1299.2646   -15921.718    708.34069 
   25250    266.63652   -47.744681    46863.782   -14625.149     1243.056   -15868.205    710.42368 
   25300    280.02666   -138.65889    46748.689   -14587.326    1305.4806   -15892.807    711.32976 
   25350    286.17483    -169.1997    46690.942   -14592.518    1334.1433   -15926.661    711.64926 
   25400    280.02152    39.895731    46564.443     -14568.1    1305.4566   -15873.557    710.94322 
   25450    274.24346    332.38935    46663.054   -14584.801    1278.5194    -15863.32     712.1495 
   25500     284.8756    257.52488    46729.013   -14538.016    1328.0863   -15866.102    714.88126 
   25550    277.89589    236.73991    46950.333   -14580.884     1295.547   -15876.431     719.2596 
   25600    285.41576    55.843543    46756.547   -14624.244    1330.6045   -15954.849    719.63056 
   25650    285.29666   -292.81361    46877.791   -14594.691    1330.0493    -15924.74    722.81271 
   25700    276.75339    132.54859    46770.479   -14640.183    1290.2207   -15930.403    723.89706 
   25750    278.01044   -51.942244    46758.301   -14619.605     1296.081   -15915.686    725.55067 
   25800    285.06751    -133.3963    46648.024   -14625.175     1328.981   -15954.156    727.36784 
   25850     277.2789    96.410862    46626.534   -14585.452    1292.6706   -15878.122    728.51058 
   25900    280.64013   -196.25305    46746.885   -14586.325    1308.3406   -15894.665    730.77814 
   25950    287.32009    60.291896    46764.125   -14551.579    1339.4825   -15891.061    732.67299 
   26000     282.4191   -67.155814    46944.323   -14541.924    1316.6342   -15858.558    737.11044 
   26050    282.44167    361.81724    46958.366   -14604.074    1316.7394   -15920.813    737.85226 
   26100     277.0895     -127.809     46901.53   -14619.851    1291.7876   -15911.638    739.73479 
   26150    279.02861    301.74709    46955.118   -14594.714    1300.8277   -15895.542    741.98759 
   26200    283.20041    83.475381    46989.186   -14582.449    1320.2766   -15902.725    741.25834 
   26250    280.98457   -63.692873    46992.607   -14548.488    1309.9464   -15858.434    741.56968 
   26300    285.80267   -451.23325    46904.277   -14556.169    1332.4083   -15888.577    745.20904 
   26350    275.26167   -49.532548     46917.14   -14571.947    1283.2663   -15855.213    747.44246 
   26400    281.64894    110.12106    46800.032   -14551.203    1313.0437   -15864.247    748.52773 
   26450    276.80964   -142.87896    46756.383   -14573.559    1290.4829   -15864.042    749.60874 
   26500    286.95001    180.40411    46656.353   -14549.009    1337.7572   -15886.766    750.00048 
   26550    276.90834    -1.105088    46633.119   -14621.913    1290.9431   -15912.856    752.20652 
   26600    276.75405   -29.978008    46650.389   -14612.911    1290.2238   -15903.135    752.33458 
   26650    273.83031   -85.474489    46654.383   -14621.239    1276.5933   -15897.832    755.26756 
   26700    277.03636    55.953034    46669.041   -14630.607    1291.5399   -15922.147    757.42254 
   26750    276.92031    333.50769    46822.969   -14576.703    1290.9988   -15867.702    760.48761 
   26800    282.79968   -147.51604    46839.587   -14577.962    1318.4084    -15896.37    763.63056 
   26850    286.51015   -145.02695    46953.426   -14577.064    1335.7066   -15912.771    764.16358 
   26900    275.03452   -126.64572    46868.597   -14601.473    1282.2073    -15883.68    763.86737 
   26950    275.91976    10.604608    46636.411   -14634.665    1286.3343   -15920.999    763.20806 
   27000    283.74543   -110.59669    46733.535    -14620.12    1322.8175   -15942.937    766.19381 
   27050    268.51544    210.97178     46705.94    -14660.27    1251.8155   -15912.085    768.77451 
   27100    277.49931    42.882809    46814.801   -14620.159    1293.6982   -15913.858    770.38727 
   27150    274.66905    213.93584    46823.296   -14640.485    1280.5035   -15920.988    770.97833 
   27200    268.03279   -127.56021    46909.976   -14660.984    1249.5654   -15910.549      774.269 
   27250    270.31167    83.032465    46783.998   -14639.515    1260.1895   -15899.705    773.82451 
   27300    273.77906    92.519766    46697.147   -14658.883    1276.3544   -15935.238    774.45281 
   27350    280.54162     54.34923    46663.001   -14643.933    1307.8813   -15951.814     776.1642 
   27400    286.25249    -252.5028    46616.402   -14597.225    1334.5054    -15931.73    776.07433 
   27450    283.49504     192.0115    46721.581   -14566.837    1321.6502   -15888.487    779.71359 
   27500    284.44725    316.79604    46659.122     -14559.6    1326.0894    -15885.69     779.7966 
   27550    280.36215    48.955356    46681.721   -14568.628    1307.0447   -15875.673    780.96988 
   27600    286.00796   -183.62588    46931.884   -14560.703    1333.3653   -15894.068    784.36984 
   27650    286.33782   -298.17546    46962.574   -14579.919    1334.9032   -15914.822    786.73647 
   27700    285.20169   -298.38642    46934.638   -14604.147    1329.6065   -15933.753    786.61219 
   27750    284.34462   -162.34161    46924.525   -14546.212    1325.6109   -15871.823    788.39985 
   27800    288.13748    98.962983     46866.79   -14532.235    1343.2932   -15875.528    788.86503 
   27850    289.55039   -345.12846    46863.378    -14513.72    1349.8801   -15863.601    790.40972 
   27900    275.48921    181.76476    46771.781   -14584.765    1284.3271   -15869.093    790.03541 
   27950    273.83992   -152.89127    46857.224   -14625.831    1276.6381    -15902.47    792.15218 
   28000    283.95822    -580.6027    46682.989   -14609.133    1323.8095   -15932.942    791.61793 
   28050    288.13362   -69.702071    46471.573   -14581.264    1343.2751   -15924.539    791.16436 
   28100    279.69287    133.32914    46497.142   -14603.842    1303.9245   -15907.766    791.64151 
   28150    285.18046    380.07986    46471.429   -14564.482    1329.5076    -15893.99    792.08435 
   28200    280.31837     307.5671    46606.397   -14625.224    1306.8406   -15932.065    792.88811 
   28250    279.10137    -22.97332    46690.381   -14593.345    1301.1669   -15894.512    795.06331 
   28300     285.4427   -253.41793    46693.867     -14597.9    1330.7301   -15928.631    796.12366 
   28350     277.8309    309.04866    46578.501   -14632.608     1295.244   -15927.852    796.53825 
   28400    275.51019     16.79293    46547.393   -14656.397    1284.4249   -15940.822    799.26013 
   28450    271.21252    112.93213    46657.608    -14686.25    1264.3892   -15950.639    802.66645 
   28500    273.68555    -74.74451    46727.092   -14665.743    1275.9185   -15941.662    802.54889 
   28550    276.39141   -60.739745    46771.928    -14619.97    1288.5331   -15908.503    802.84452 
   28600    280.49876   -47.342253    46766.566   -14594.402    1307.6816   -15902.084    805.06336 
   28650    270.04721    272.24093    46909.061   -14629.227    1258.9565   -15888.184     808.5902 
   28700    279.35854   -374.57297    46886.217   -14621.991    1302.3659   -15924.357    808.71718 
   28750    277.90178     111.9528    46888.019   -14602.271    1295.5745   -15897.846    810.43732 
   28800    278.96028   -77.977425    46945.739   -14594.548    1300.5092   -15895.058    811.07088 
   28850    275.23203    79.996038    47004.882   -14581.085    1283.1281   -15864.213    813.40036 
   28900    284.52541   -269.60758    47014.481   -14580.998    1326.4537   -15907.451    816.00593 
   28950    280.04004   -224.36461    46927.714   -14636.305     1305.543   -15941.848    816.42446 
   29000    270.27328   -256.29196    46872.438   -14642.331    1260.0105   -15902.342    817.69805 
   29050    272.10814   -27.037157    46834.222   -14560.513    1268.5646   -15829.077    819.43091 
   29100    286.51742    221.90161    46734.682   -14568.827    1335.7405   -15904.567    818.62647 
   29150    289.02343   -134.36295    46792.408   -14535.251    1347.4235   -15882.674    819.13976 
   29200    283.11291    81.606995    46885.304   -14549.491    1319.8687    -15869.36    822.17608 
   29250    285.94896   -169.82771    46772.458   -14573.801    1333.0903   -15906.892    821.24457 
   29300    273.99862     61.26176    46882.312    -14609.18     1277.378   -15886.558    821.53168 
   29350    282.56071    268.51702    46847.026    -14611.51    1317.2943   -15928.804    823.08575 
   29400    270.17648    73.374283    46893.454   -14685.249    1259.5592   -15944.808    823.71802 
   29450    277.74117    86.252022    46908.337    -14646.38    1294.8257   -15941.206    823.86618 
   29500    285.65093   -57.808115    46848.644   -14663.397    1331.7009   -15995.097    825.08618 
   29550    277.74587   -270.36315    46824.166    -14664.06    1294.8476   -15958.907    826.59633 
   29600    276.28785    160.61731    46830.535   -14583.764    1288.0503   -15871.815    828.84369 
   29650    279.00083   -120.06336    46810.747   -14591.807    1300.6982   -15892.505    827.63167 
   29700    282.20066   -55.934632    46646.016   -14649.616    1315.6158   -15965.232    826.41422 
   29750    273.12261    320.97768    46626.899   -14646.195     1273.294   -15919.489    829.74741 
   29800    263.48842   -78.799328    46690.245   -14640.572    1228.3796   -15868.952    830.45467 
   29850    279.33755   -82.384017     46643.44   -14610.733     1302.268   -15913.001    832.47325 
   29900    271.83492    109.93097     46580.64   -14641.206    1267.2909   -15908.497    834.66684 
   29950    272.32888    232.89887    46623.983   -14565.104    1269.5937   -15834.698    836.88085 
   30000    277.73822    107.03234    46871.289   -14581.375     1294.812   -15876.187    840.70409 
   30050    283.59177    27.030267    46913.742   -14563.221    1322.1011   -15885.322    843.61934 
   30100    280.88478    -121.3547    46875.015   -14622.095    1309.4811   -15931.577    845.07729 
   30150     280.4487   -129.21491    46839.348   -14609.257    1307.4482   -15916.706    843.99612 
   30200    274.73595    88.078251    46754.367   -14625.472    1280.8154   -15906.287    843.89173 
   30250    273.09544   -89.636895    46745.526   -14589.224    1273.1673   -15862.391    845.72872 
   30300    280.07336    40.792564    46766.053   -14550.698    1305.6983   -15856.396    847.71649 
   30350     284.7191    -56.05831    46758.783   -14549.811    1327.3567   -15877.168    849.09618 
   30400    282.67879    197.89446    46691.736   -14561.231    1317.8448   -15879.076    850.55246 
   30450    281.40771    237.55586    46791.616   -14580.792    1311.9191   -15892.711    852.75819 
   30500    287.48908   -303.78474    46777.969   -14581.593    1340.2703   -15921.864    855.43138 
   30550    290.54239   -263.23374    46671.651   -14600.575    1354.5048    -15955.08    855.65677 
   30600    280.51524   -98.159835    46709.531   -14591.861    1307.7584   -15899.619     858.3892 
   30650    280.00309   -507.39953    46622.486   -14624.014    1305.3708   -15929.385    860.20652 
   30700    276.37617   -245.56522    46531.525   -14630.791    1288.4621   -15919.253     859.4444 
   30750    279.99359   -167.38229    46582.252   -14597.358    1305.3264   -15902.684    860.18545 
   30800    280.14223    16.650093    46698.977   -14583.663    1306.0194   -15889.682     863.9597 
   30850    274.39058   -70.915963    46802.271   -14615.335    1279.2053   -15894.541    866.17205 
   30900    277.69951    73.080446    46714.651    -14653.72    1294.6315   -15948.351    865.62177 
   30950     275.9002    -42.89962    46838.952   -14655.372    1286.2431   -15941.615    866.21629 
   31000    276.02242    300.46301    46813.945   -14701.588    1286.8129   -15988.401    866.95344 
   31050    270.53402   -20.387614    47005.498   -14684.633    1261.2261   -15945.859    870.44934 
   31100    282.93552   -91.541642    46892.112   -14660.721    1319.0417   -15979.763    870.11634 
   31150    275.94321   -224.77327    46857.435   -14633.237    1286.4436    -15919.68    871.53667 
   31200     274.8427   -269.77619    46924.484   -14651.387    1281.3131     -15932.7    872.91809 
   31250    274.21328   -93.836781    46783.473   -14701.775    1278.3787   -15980.154    872.95098 
   31300    288.56141    245.23285    46996.554   -14559.793    1345.2695   -15905.062    876.05602 
   31350    286.74312   -340.07173    47063.497   -14525.167    1336.7927   -15861.959    879.87321 
   31400    284.17062    16.393576    46890.559   -14555.871    1324.7997    -15880.67    880.71171 
   31450    278.17175    65.077394    46983.338   -14630.533     1296.833   -15927.366    882.58614 
   31500    282.13019   -268.60575    46894.177   -14620.761    1315.2872   -15936.048    882.30236 
   31550    274.66885     296.1785    46929.456   -14578.267    1280.5026    -15858.77    883.55479 
   31600    280.22162     27.45616    46925.214   -14584.625    1306.3895   -15891.015    885.67705 
   31650    267.83074     278.5991    46877.426   -14613.146    1248.6234   -15861.769    886.39302 
   31700    287.78667   -404.92036    46913.516   -14617.525    1341.6577   -15959.183    886.51852 
   31750    284.57713    57.463345    46821.655   -14570.778    1326.6949   -15897.473    885.79881 
   31800    282.67998    196.75879    46827.907   -14556.948    1317.8504   -15874.798    888.02135 
   31850    286.71202   -297.87605    46806.693   -14559.311    1336.6477   -15895.959    887.35481 
   31900    284.77041    229.58974    46616.571   -14567.292    1327.5959   -15894.888    887.12325 
   31950    292.60035    392.09873    46546.834   -14538.142     1364.099   -15902.241    888.17938 
   32000    279.63409    83.908298    46632.145   -14544.029    1303.6505    -15847.68    890.62915 
   32050    285.45216    16.386662    46594.108   -14554.812    1330.7742   -15885.586    891.52143 
   32100    286.02876   -107.72723    46618.283   -14558.933    1333.4623   -15892.396    894.74745 
   32150    283.13095    22.887144    46575.056   -14576.792    1319.9528   -15896.745    896.77541 
   32200    280.97828    142.59724    46604.968    -14566.75    1309.9171   -15876.667    900.78968 
   32250    287.47584    177.90969    46736.625    -14523.23    1340.2086   -15863.439    903.09074 
   32300    285.57746    25.293454    46868.937   -14560.512    1331.3584    -15891.87    907.89616 
   32350    279.60722   -6.0518471    46687.243   -14537.695    1303.5252    -15841.22    906.95762 
   32400    276.61967   -23.878136    46504.506   -14603.592    1289.5973    -15893.19    904.52928 
   32450    267.12852    98.035127    46650.227   -14584.225    1245.3497   -15829.574    906.51985 
   32500     277.8037    288.72373    46604.493   -14606.086    1295.1172   -15901.204    906.33086 
   32550    282.63763   -183.66432    46558.117   -14545.987    1317.6529   -15863.639    907.13177 
   32600    277.85514    -151.9104    46565.609   -14542.696     1295.357   -15838.053    908.50432 
   32650    287.72326   -96.710654    46700.222   -14556.813    1341.3621   -15898.176    909.65869 
   32700    278.68094    37.913784    46758.669    -14602.73    1299.2069   -15901.936    911.88763 
   32750    276.13368    256.98335    46853.412   -14594.113    1287.3316   -15881.445    915.34876 
   32800    271.95956    3.6708741    46900.172   -14660.547    1267.8719   -15928.419    918.90874 
   32850    279.12273    131.86322    46795.204   -14653.428    1301.2665   -15954.694    918.53946 
   32900    274.01004    428.27905    46901.122   -14637.526    1277.4312   -15914.957     922.5888 
   32950    270.26713   -114.64256     46910.22   -14647.604    1259.9818   -15907.586    924.19167 
   33000    277.84329    178.09024     46899.34   -14637.456    1295.3018   -15932.757    926.16247 
   33050    278.03383   -161.28914    46915.196   -14618.146    1296.1901   -15914.336    929.23838 
   33100    279.66039    158.04895    46866.474   -14561.175    1303.7731   -15864.948    929.34873 
   33150    281.00152    -19.12954    46957.942   -14582.794    1310.0254    -15892.82    931.03483 
   33200    278.02081   -45.994919    46757.374   -14625.198    1296.1294   -15921.327    931.37705 
   33250    275.66841   -84.081752    46819.513   -14622.793    1285.1625   -15907.956    932.74636 
   33300    285.59585   -234.57573    46757.411   -14573.207    1331.4441   -15904.651    933.85402 
   33350    274.61239     145.3167    46794.472    -14606.74    1280.2394   -15886.979    935.95825 
   33400    279.40833   -103.94001    46751.623   -14602.113     1302.598   -15904.711    937.30907 
   33450    276.59309   -23.771473    46820.641   -14595.474    1289.4734   -15884.947    939.52733 
   33500    276.77763   -36.551018    46708.005   -14579.437    1290.3337   -15869.771    940.47605 
   33550    273.54793    98.550026    46650.964   -14580.387    1275.2769   -15855.663    943.18502 
   33600    272.76509    159.97927    46609.361   -14576.901    1271.6273   -15848.528    943.40099 
   33650    283.82448    41.396821    46660.928   -14567.527     1323.186   -15890.713    947.07979 
   33700    280.62133    202.57444     46731.36   -14598.692     1308.253   -15906.945    949.36328 
   33750    284.38234   -203.60316    46612.901   -14613.052    1325.7868   -15938.839    948.45389 
   33800     283.2975    185.40466    46716.752   -14583.464    1320.7293   -15904.193     952.2291 
   33850    275.82358    37.410575    46878.846   -14612.348    1285.8859   -15898.234    955.42032 
   33900    280.92713   -188.07548    46713.537   -14594.377    1309.6786   -15904.055    954.48127 
   33950     274.1043   -31.363123    46703.296    -14618.09    1277.8707    -15895.96    954.48971 
   34000     276.3168    219.66548    46724.587   -14541.791    1288.1853   -15829.977    955.35109 
   34050    276.03052   -184.32431    46729.878   -14590.609    1286.8507   -15877.459      958.419 
   34100    294.37865   -50.016925    46670.957   -14585.037    1372.3894   -15957.426    960.88132 
   34150    274.93042    86.789661    46613.791   -14599.256     1281.722   -15880.978    960.75422 
   34200    283.84574     82.79476    46690.068   -14599.477    1323.2851   -15922.763    962.54737 
   34250    269.48308      54.1504    46702.422   -14666.068    1256.3266   -15922.394    964.27753 
   34300    272.83904     89.49902    46802.019   -14622.278     1271.972    -15894.25    968.54229 
   34350    287.79891    388.84324    46896.919   -14523.459    1341.7148   -15865.174    972.03612 
   34400    283.30573     258.6771    46757.996   -14550.314    1320.7676   -15871.081     971.0467 
   34450    289.04516   -57.399562    46847.249   -14569.219    1347.5247   -15916.744      974.277 
   34500    276.51305   -227.75122    46773.116   -14591.273    1289.1002   -15880.373    975.08388 
   34550    281.15972    -111.3567    46780.645   -14542.551    1310.7629   -15853.314    975.17745 
   34600    274.33088    263.57491    46747.253   -14572.312     1278.927   -15851.239    977.11026 
   34650    275.42655   -78.362305    46852.015   -14605.986     1284.035   -15890.021    978.04074 
   34700     266.6842   -136.23457    46833.437   -14625.964    1243.2783   -15869.242    979.34944 
   34750    284.04668    342.03892     46846.03   -14594.746    1324.2219   -15918.968     980.8978 
   34800    273.44344   -75.651217    46757.748   -14621.373    1274.7897   -15896.163    979.35514 
   34850    282.10553    -28.09414    46698.268   -14641.599    1315.1723   -15956.771    978.58036 
   34900    281.43577   -64.289589     46665.99   -14639.816    1312.0499   -15951.866    978.79488 
   34950    268.39902   -100.71638    46557.436   -14663.675    1251.2727   -15914.948    975.84928 
   35000     270.0795    143.10127    46431.233   -14713.745    1259.1071   -15972.853    975.92744 
   35050    279.56992     151.8119    46539.733   -14659.415    1303.3513   -15962.766    977.49067 
   35100    272.65994    254.19053    46652.556   -14637.205    1271.1371   -15908.342    979.79145 
   35150    279.95649    70.955946    46746.894   -14589.281    1305.1535   -15894.434     983.5982 
   35200    281.14027    275.77585    46767.254   -14631.939    1310.6723   -15942.611    985.50991 
   35250    273.20063    -100.2863    46708.215   -14603.561    1273.6577   -15877.219     986.8966 
   35300    279.48458   -108.29585    46677.274   -14610.837    1302.9535   -15913.791    987.41699 
   35350      280.894    456.53292    46594.181   -14592.514    1309.5242   -15902.038    987.64372 
   35400    280.08682    275.35228     46693.72   -14639.409    1305.7611    -15945.17    990.85917 
   35450     279.9735    144.85646    46746.427    -14566.52    1305.2328   -15871.753     993.8109 
   35500    293.99059    147.38705    46782.997   -14545.966    1370.5803   -15916.546    996.35846 
   35550      277.923    16.405062    46794.841   -14593.142    1295.6734   -15888.816    997.64319 
   35600    282.01974    459.09813    46861.464    -14582.51    1314.7723   -15897.283    999.46944 
   35650    271.74455   -38.411864    46937.025   -14568.464    1266.8695   -15835.333    1002.1645 
   35700    292.18265    32.635121    46890.441   -14560.373    1362.1517   -15922.524    1003.4923 
   35750    280.33241   -304.86871    46923.905   -14605.206     1306.906   -15912.112    1005.4012 
   35800    283.25915   -193.29981    46698.205   -14573.325    1320.5505   -15893.875    1003.7102 
   35850    276.48834    199.13539     46774.62   -14567.614     1288.985   -15856.599    1004.5156 
   35900    282.47606    46.971057    46988.724   -14538.537    1316.8997   -15855.437    1009.3976 
   35950    289.82484   -193.94289    47033.183   -14495.239    1351.1596   -15846.398    1011.0592 
   36000    282.03419   -253.79484    46932.958   -14527.505    1314.8397   -15842.345    1010.3701 
   36050    286.92122   -208.50628    46735.657   -14501.074     1337.623   -15838.697     1009.976 
   36100    278.33469    146.48337    46763.793   -14570.583    1297.5927   -15868.176    1013.2075 
   36150    275.92212    303.65543    46750.894   -14571.008    1286.3453   -15857.353    1015.8052 
   36200     274.5023   -98.469086     46551.38   -14585.513    1279.7261    -15865.24    1015.2993 
   36250    281.13108     79.42241    46664.942   -14614.589    1310.6294   -15925.218    1017.6934 
   36300    276.85128   -178.71639    46648.701   -14623.615     1290.677   -15914.292    1018.7794 
   36350    285.47571     145.9625    46626.534   -14626.229     1330.884   -15957.113    1022.1801 
   36400    280.69669     53.90345    46809.066   -14551.604    1308.6043   -15860.208    1024.9046 
   36450    282.00241    23.028479    46847.265   -14557.661    1314.6915   -15872.353    1026.6576 
   36500    274.51916   -100.25159    46905.732   -14567.109    1279.8047   -15846.913    1029.6087 
   36550    268.76112   -16.645252    46782.489   -14611.814    1252.9608   -15864.775    1030.3872 
   36600    272.01291     206.2736     46854.01   -14664.424    1268.1206   -15932.544    1033.6147 
   36650    279.14494   -55.025601     46826.26   -14629.192      1301.37   -15930.562    1032.5438 
   36700    277.52459   -11.393029    46908.991    -14601.05     1293.816   -15894.866    1034.4335 
   36750    270.29717    153.38545    46884.393   -14589.107    1260.1219   -15849.229    1035.8329 
   36800    280.60124   -61.054549    46856.254     -14591.7    1308.1593   -15899.859    1035.2323 
   36850    278.19232   -139.17315     46832.07   -14650.233     1296.929   -15947.162    1037.0932 
   36900    273.65877    67.304828    46755.105   -14616.866    1275.7936   -15892.659    1036.0126 
   36950    278.27192    349.58893    46855.385   -14563.888       1297.3   -15861.188    1037.9533 
   37000    285.07561    67.735067    46798.772   -14557.929    1329.0188   -15886.948    1038.2504 
   37050    273.43687   -152.28389    46855.318   -14591.845    1274.7591   -15866.604    1040.6533 
   37100    277.51079    172.17019    46744.333    -14568.73    1293.7517   -15862.482    1041.7942 
   37150    278.66135    56.205556    46698.549   -14606.803    1299.1156   -15905.919    1042.0312 
   37200    278.65155    1.4865556    46704.043   -14633.147    1299.0699   -15932.217    1042.0511 
   37250    269.27226    544.58666    46718.052   -14644.247    1255.3437    -15899.59    1044.0162 
   37300    277.63337    -239.1603    46722.777   -14634.794    1294.3231   -15929.117    1046.2462 
   37350    268.80493    -99.19853    46606.969   -14632.625    1253.1651    -15885.79    1044.7568 
   37400    278.37298    156.77888    46522.298   -14640.618    1297.7712   -15938.389    1045.0771 
   37450    273.99819    298.83203    46488.027   -14620.052     1277.376   -15897.428    1048.4784 
   37500    278.64931    396.32809    46566.527    -14643.73    1299.0594    -15942.79    1050.9145 
   37550    279.46931     93.20839    46622.705   -14618.693    1302.8823   -15921.575    1051.2801 
   37600    277.19332    127.24041    46684.761   -14590.181    1292.2716   -15882.453    1055.0499 
   37650    280.63702    122.83734    46637.883   -14568.957    1308.3261   -15877.284    1055.7035 
   37700    270.27571   -17.058045    46655.575   -14608.627    1260.0218   -15868.648    1056.9261 
   37750    282.85836    105.20956     46653.38   -14676.324     1318.682   -15995.006    1058.5562 
   37800    276.10436    293.69301    46646.821   -14698.157    1287.1949   -15985.352    1062.0917 
   37850    278.48631    68.757274     46764.03   -14681.717    1298.2995   -15980.016    1064.4635 
   37900    280.07127   -244.96522    46853.424   -14633.794    1305.6886   -15939.483    1066.4718 
   37950    271.42996   -33.522083    46700.716   -14653.662    1265.4029   -15919.064    1066.8568 
   38000    283.45213    182.66655    46652.695   -14623.752    1321.4501   -15945.202    1070.3203 
[...]
   91600     285.6649    106.83279    46871.244   -14540.415     1331.766   -15872.181    2780.1123 
   91650    284.43789    356.14696    46953.643   -14582.009    1326.0457   -15908.054    2789.0715 
   91700    275.90049    193.81843    46899.429   -14641.221    1286.2445   -15927.466    2787.9046 
   91750    286.79725   -20.940535    46762.584   -14631.412     1337.045   -15968.457    2783.0386 
   91800    280.94559    104.27203    46902.585   -14623.649    1309.7647   -15933.414    2791.1239 
   91850    273.93561   -203.21719    46742.671   -14616.715    1277.0842   -15893.799    2786.8047 
   91900    275.64397   -86.772059    46741.245   -14578.991    1285.0486   -15864.039    2784.9406 
   91950    272.85204    19.230414    46607.616   -14610.562    1272.0326   -15882.595     2782.306 
   92000    278.55904   -201.39483    46630.404   -14639.739    1298.6386   -15938.377     2784.364 
   92050    280.15643    37.039849    46462.608   -14632.016    1306.0856   -15938.102    2779.4524 
   92100    278.50531    64.391554    46553.806   -14671.454    1298.3881   -15969.842    2783.3587 
   92150    278.06338    110.75719    46587.445   -14689.224    1296.3278   -15985.551    2787.5702 
   92200    282.22752    280.06371    46687.362   -14617.391     1315.741   -15933.132     2794.697 
   92250    276.00532   -222.47916    46651.425   -14595.638    1286.7332   -15882.371    2796.0022 
   92300    294.22543    3.4187961    46716.652   -14489.738    1371.6751   -15861.413    2800.1882 
   92350    283.13155    99.311042    46774.693   -14500.543    1319.9556   -15820.498    2803.3695 
   92400    281.10624     137.9628    46754.049   -14532.688    1310.5136   -15843.201    2801.7259 
   92450     283.4598   -307.26668    46666.526   -14569.064    1321.4859    -15890.55    2798.7964 
   92500    280.23981   -32.287824    46693.722   -14584.477    1306.4743   -15890.951    2801.2398 
   92550    276.39503    119.50724    46772.547   -14583.207      1288.55   -15871.757     2803.729 
   92600    282.28769    143.15008    46897.766   -14568.546    1316.0215   -15884.567    2809.1842 
   92650    271.71426   -145.39844    46973.546   -14584.892    1266.7283    -15851.62    2814.9724 
   92700    274.71266    153.39679    46978.693    -14573.36    1280.7068   -15854.067    2817.3207 
   92750    279.66566    226.56364    46966.121   -14564.586    1303.7976   -15868.383    2815.9362 
   92800    278.35418   -516.75233    46847.073   -14600.947    1297.6836    -15898.63    2809.5532 
   92850    286.02567   -52.702365    46732.862   -14572.802    1333.4479    -15906.25     2808.841 
   92900    281.36195   -89.247237    46755.057   -14563.144    1311.7057    -15874.85    2809.8077 
   92950     280.7729   -143.45118    46708.943    -14580.16    1308.9596   -15889.119    2812.1272 
   93000    275.83189   -314.96426    46664.436   -14595.474    1285.9247   -15881.398    2812.4994 
   93050    300.12633    122.29793    46556.775   -14527.147     1399.185   -15926.332    2805.6238 
   93100    285.60335    -382.2995     46727.91   -14549.473    1331.4791   -15880.952    2813.9411 
   93150    278.26407    265.76994    46840.438   -14558.521    1297.2635   -15855.784    2822.6991 
   93200    273.47079   -212.38797    46750.146   -14547.016    1274.9172   -15821.933    2821.3946 
   93250    280.97697   -205.02487    46727.191   -14567.693     1309.911   -15877.604    2821.7635 
   93300    274.14922    170.91685    46748.914   -14559.539    1278.0801    -15837.62    2826.0653 
   93350    283.45067   -213.51708    46688.014   -14573.276    1321.4433   -15894.719    2824.9588 
   93400    281.02203    307.78339    46712.835   -14595.337     1310.121   -15905.458     2825.789 
   93450    272.18468     45.23152    46661.338   -14649.625    1268.9214   -15918.546    2827.3396 
   93500    265.53015    203.65114     46535.64   -14653.863    1237.8981   -15891.761    2826.3884 
   93550    269.47818    170.77766    46599.661   -14705.908    1256.3038   -15962.212    2826.8859 
   93600    266.95679   -62.975312    46481.926   -14696.628     1244.549   -15941.177    2821.9686 
   93650    272.27686    265.83287    46583.588   -14717.111    1269.3511   -15986.463    2830.7466 
   93700    274.72532    183.34859    46759.396   -14644.644    1280.7658   -15925.409    2839.6006 
   93750    276.49593    376.50383    46877.007   -14639.961    1289.0204   -15928.981    2845.2757 
   93800     287.3673    154.33763    46949.884   -14596.641    1339.7026   -15936.344     2847.106 
   93850    289.53876     -192.986    46846.814    -14596.49    1349.8259   -15946.316    2844.3627 
   93900     273.5563   -67.021715    46740.662   -14669.065    1275.3159   -15944.381     2838.559 
   93950    272.72256   -245.19934    46756.683   -14685.529     1271.429   -15956.958    2840.9442 
   94000    270.39915    120.98872    46861.971   -14648.803    1260.5973     -15909.4     2845.722 
   94050    265.43093    -80.17555    46869.619   -14673.497    1237.4355   -15910.933    2847.5313 
   94100    278.84284    -127.5287    46809.246    -14631.65    1299.9617   -15931.612    2844.9802 
   94150    273.00631    236.62458    46893.502   -14642.406    1272.7519   -15915.158    2850.0847 
   94200    280.90954   -53.832355    47077.145    -14601.98    1309.5966   -15911.577    2857.2757 
   94250    269.97554    99.509192    46878.985   -14622.759    1258.6224   -15881.381    2850.3192 
   94300     283.5917    235.75047     46824.39   -14540.865    1322.1008   -15862.966    2849.1746 
   94350    281.72779    239.61368    46713.925   -14540.719    1313.4113    -15854.13    2845.3438 
   94400    278.39507   -241.34895    46723.759    -14546.11    1297.8742   -15843.984    2847.6005 
   94450    285.34991    164.11847      46627.1   -14511.413    1330.2976    -15841.71    2848.0699 
   94500    294.59725   -17.262199    46655.123   -14505.679    1373.4085   -15879.088    2850.4144 
   94550    283.11777   -175.10958    46594.548   -14537.393    1319.8913   -15857.284    2848.8661 
   94600    284.22422    20.680986    46648.003   -14564.852    1325.0496   -15889.902    2852.5083 
   94650    286.97393    145.18606    46545.916   -14551.938    1337.8687   -15889.806    2848.7583 
   94700     268.9024    122.56565    46630.838   -14589.862    1253.6195   -15843.482    2853.2721 
   94750    290.67142    150.49762    46617.558   -14576.182    1355.1064   -15931.289    2855.7875 
   94800    291.37606    345.77278    46802.576   -14565.438    1358.3914   -15923.829    2866.3196 
   94850    281.60115    146.17667     46857.96   -14575.218    1312.8209   -15888.039    2870.3453 
   94900    290.72094    328.33182    47013.933   -14528.965    1355.3372   -15884.302     2877.784 
   94950     286.6838    64.388144    46982.963   -14579.214    1336.5161    -15915.73     2879.359 
   95000    289.83813    81.434848    46869.494   -14555.782    1351.2216   -15907.003    2874.9319 
   95050    287.95519     239.1583    46863.749   -14517.689    1342.4433   -15860.132    2876.5944 
   95100     278.3675    71.896014    46841.321   -14569.056    1297.7457   -15866.802    2874.9948 
   95150    280.76928   -70.922804    46810.417   -14589.335    1308.9427   -15898.278    2875.9418 
   95200    280.16445    145.53796    46990.221   -14563.028     1306.123   -15869.151    2887.4742 
   95250    278.24582   -317.07172    46852.455   -14574.706    1297.1784   -15871.884    2884.2582 
   95300    302.15793    307.32587    46867.239   -14484.351    1408.6563   -15893.007    2881.0444 
   95350    272.30667    288.81639    46785.406   -14588.612    1269.4901   -15858.102    2874.8213 
   95400    280.94651   -256.61519    46827.429   -14556.873    1309.7689   -15866.642    2878.2831 
   95450    283.40975   -227.73687    46781.804   -14570.911    1321.2526   -15892.163    2877.2263 
   95500    278.70985   -264.01736    46830.321   -14577.178    1299.3417    -15876.52    2882.6175 
   95550    283.52031   -250.10604     46687.88   -14568.461     1321.768   -15890.229    2876.6725 
   95600    289.58382    264.16199    46645.416   -14565.115     1350.036   -15915.151    2876.8285 
   95650    272.56162    178.47774    46781.475   -14585.355    1270.6787   -15856.034     2882.396 
   95700    277.24923   -11.281027    46737.117   -14618.407    1292.5323   -15910.939      2885.88 
   95750    275.62147     160.4933    46736.478   -14621.006    1284.9437   -15905.949    2889.2001 
   95800    277.92397    117.00417    46672.749   -14648.445    1295.6779   -15944.123    2889.2747 
   95850    272.76361     579.4326     46857.27   -14598.149    1271.6204   -15869.769    2895.5885 
   95900    274.46422    -150.6811    46724.277   -14583.742    1279.5486    -15863.29    2890.2326 
   95950     289.3196   -346.36593    46861.682   -14593.841    1348.8042   -15942.646    2893.5307 
   96000    279.06962   -309.41325    46771.535    -14648.82    1301.0189   -15949.839    2890.9536 
   96050    276.77831    73.991415    46694.646   -14657.181    1290.3368   -15947.518    2887.8961 
   96100    280.55655   -43.916647    46625.311   -14599.683    1307.9509   -15907.634    2885.7834 
   96150    283.46372    -195.4893    46766.202   -14625.633    1321.5042   -15947.137     2894.095 
   96200    274.60139   -198.69289    46690.089   -14625.388    1280.1881   -15905.577    2893.0018 
   96250    274.73182    300.28314    46523.352   -14638.095    1280.7961   -15918.891    2890.4929 
   96300    285.27807   -62.653272    46598.492   -14571.349    1329.9626   -15901.311    2898.1253 
   96350    275.85474   -80.753449    46833.167   -14571.938    1286.0312   -15857.969    2906.1738 
   96400    288.23301    209.06593    46797.538   -14558.829    1343.7385   -15902.568    2903.3135 
   96450    280.91295    130.08228    46885.449   -14555.423    1309.6125   -15865.035    2905.6107 
   96500    277.99376   -97.135787     46740.65   -14590.938    1296.0033   -15886.942     2901.128 
   96550    273.95794    81.501057    46767.503   -14601.199    1277.1883   -15878.387    2903.9002 
   96600    275.27257    2.9104214    46752.914   -14606.598    1283.3171   -15889.915    2904.5349 
   96650    279.48468     32.71193    46854.895    -14612.17    1302.9539   -15915.123    2909.3203 
   96700     273.2485   -298.83911    46784.067   -14688.387     1273.881   -15962.268    2910.4809 
   96750    269.35709   -227.67095    46754.679   -14728.856    1255.7392   -15984.595    2909.8235 
   96800    272.72841     -80.9225    46668.623   -14710.446    1271.4563   -15981.902    2907.4688 
   96850    276.09711   -240.15577     46736.06   -14652.708    1287.1611    -15939.87    2908.4699 
   96900    273.77716   -18.263935    46611.154   -14627.845    1276.3456   -15904.191     2907.959 
   96950    279.14962    98.952298    46574.808   -14636.932    1301.3919   -15938.324     2908.415 
   97000    276.47983    79.382978    46667.232   -14621.468    1288.9453   -15910.413    2919.5409 
   97050    278.23034   -8.1679832    46645.422   -14568.589    1297.1062   -15865.695    2918.8761 
   97100    277.29206   -115.49742     46707.01   -14636.175    1292.7319   -15928.907    2925.5776 
   97150    287.12107    287.17524    46741.839   -14614.176    1338.5547   -15952.731    2927.7225 
   97200    280.22462    178.96763    46855.825   -14636.812    1306.4035   -15943.216    2931.7448 
   97250    271.35247   -279.18549     46700.08   -14650.718    1265.0416   -15915.759     2926.042 
   97300      283.825    1.6822111    46686.216   -14629.939    1323.1885   -15953.128    2925.0617 
   97350    272.08116   -180.33758    46848.504   -14660.883    1268.4388   -15929.322    2936.5852 
   97400    280.12603    319.00761    46748.861   -14636.589    1305.9439   -15942.533    2930.8782 
   97450    271.64009     175.9273    46750.969   -14643.895    1266.3825   -15910.277    2930.8052 
   97500    286.62073    80.637029    46825.654   -14555.559    1336.2221   -15891.781     2932.864 
   97550    282.89093    130.61173     46783.06   -14563.841    1318.8338   -15882.675    2930.9663 
   97600    264.10959      147.471    46812.758   -14619.357    1231.2754   -15850.632    2933.0352 
   97650     275.1857    379.93387    46830.594   -14642.372    1282.9121   -15925.284    2934.3907 
   97700    280.47069    26.173111    46801.808   -14544.847    1307.5507   -15852.398     2936.458 
   97750    287.28819   -218.64792    46828.777   -14543.344    1339.3338   -15882.677    2940.6868 
   97800    280.04997    299.79488    46831.003   -14543.673    1305.5893   -15849.262    2940.5626 
   97850    289.61718   -136.66681    46874.082   -14517.998    1350.1915   -15868.189     2942.416 
   97900    291.33512    234.15584    46725.839   -14500.517    1358.2005   -15858.717    2937.5377 
   97950     274.8754    77.783681     46749.45   -14527.875    1281.4655    -15809.34    2941.0822 
   98000    289.07329   -721.20501     46671.86   -14566.897    1347.6559   -15914.553    2938.4249 
   98050    283.66327    33.987582    46509.687   -14577.403    1322.4344   -15899.838    2934.3088 
   98100    283.36225   -191.56235    46702.907   -14626.224    1321.0311   -15947.255    2946.5629 
   98150    278.90138     59.38644    46711.542   -14610.147    1300.2346   -15910.381    2946.4191 
   98200    274.76246    189.38037    46737.073   -14596.693     1280.939   -15877.632     2947.406 
   98250    281.40824   -89.946788     46702.73   -14555.793    1311.9215   -15867.715     2948.542 
   98300    275.32161   -194.06936    46558.136   -14612.987    1283.5457   -15896.533    2941.3683 
   98350    278.40853   -318.19943    46626.689   -14605.445    1297.9369   -15903.382    2945.0693 
   98400     278.8255    198.53112    46626.055    -14620.47    1299.8808   -15920.351    2946.0165 
   98450    280.56136    163.00359    46620.541   -14644.944    1307.9734   -15952.917    2947.9338 
   98500    272.70294    145.01564    46779.813   -14625.737    1271.3375   -15897.075     2961.525 
   98550    276.27333   -376.12623    46726.112   -14624.295    1287.9826   -15912.278    2962.3948 
   98600    272.09983    316.65842    46501.917   -14643.328    1268.5258   -15911.854    2951.6824 
   98650    275.51188    351.09323    46616.863   -14661.385    1284.4328   -15945.818    2962.0121 
   98700    268.15178   -244.65453    46641.882   -14655.272    1250.1201   -15905.393    2963.3903 
   98750    275.21044   -533.27967    46512.182   -14627.432    1283.0275    -15910.46    2958.6269 
   98800    276.38262    218.46809    46536.113   -14625.486    1288.4922   -15913.978    2959.9835 
   98850    273.64048   -126.66402    46511.777   -14685.159    1275.7083   -15960.868    2959.4462 
   98900    278.84047    556.10205    46709.294   -14620.712    1299.9506   -15920.662    2972.9045 
   98950    278.52753    45.089609    46745.237   -14635.082    1298.4917   -15933.574    2976.9433 
   99000    282.70142    94.905989    46720.445   -14644.396    1317.9503   -15962.346    2978.3365 
   99050    285.32451     285.9584    46809.279   -14620.733    1330.1791   -15950.912    2984.8142 
   99100     279.0084   -265.17482    46781.687   -14592.155    1300.7335   -15892.888    2989.0309 
   99150     288.6311    220.94578    46779.365   -14551.736    1345.5944   -15897.331    2992.7195 
   99200    280.02541     37.49656    46806.766   -14612.139    1305.4748   -15917.614    2998.0543 
   99250    274.89859    113.24674    46801.656   -14617.746    1281.5736    -15899.32    3003.0568 
   99300    278.16045    33.905097    46663.803   -14599.732    1296.7804   -15896.512    2995.0609 
   99350    281.52399   -288.91853    46697.951   -14605.487    1312.4611   -15917.948     3000.217 
   99400    281.96195     137.8423    46699.002    -14569.22    1314.5029   -15883.723    3005.3361 
   99450    290.81593    448.09401    46844.534   -14477.995      1355.78   -15833.775    3012.4362 
   99500    290.49109    200.44645    46960.365    -14467.11    1354.2656   -15821.376    3019.0498 
   99550    279.97515    150.30686    47047.005   -14519.365    1305.2405   -15824.606    3024.2377 
   99600    288.64877    68.161337     46946.27   -14510.227    1345.6768   -15855.903    3021.5377 
   99650    287.38388   -295.64667    46794.667   -14527.659    1339.7799   -15867.439    3011.8876 
   99700    283.57714    129.62714    46821.498     -14514.7    1322.0329   -15836.733    3016.6749 
   99750    281.22193   -109.91864    46829.103   -14537.092     1311.053   -15848.145    3016.5039 
   99800    291.79933   -111.13604    46833.343   -14547.395    1360.3647    -15907.76    3021.7336 
   99850    280.16153    6.3857927    46904.075   -14564.341    1306.1094    -15870.45    3024.3413 
   99900    282.80188   -562.79415    46824.486   -14621.345    1318.4187   -15939.763    3020.2494 
   99950    282.00045   -96.005299    46739.726   -14573.747    1314.6824    -15888.43    3018.5588 
  100000    271.19212   -177.31039    46721.735   -14589.718    1264.2941   -15854.012    3018.6602 
  100050    284.08703    64.572817    46669.742   -14586.404      1324.41   -15910.814    3015.6453 
  100100    274.94154    407.43621      46804.7   -14526.721    1281.7739   -15808.495    3023.3033 
  100150    280.01443    236.03686    46736.502   -14520.012    1305.4236   -15825.436    3018.2579 
  100200    281.95957    285.85812    46657.587   -14523.161    1314.4918   -15837.653    3015.9636 
  100250     284.2162    168.01496     46773.07   -14539.608    1325.0122   -15864.621    3022.0263 
  100300    290.91431   -127.34111    46884.352   -14522.364    1356.2387   -15878.602    3027.0897 
  100350    277.34309    89.223963    46868.825   -14576.411    1292.9699   -15869.381    3027.6455 
  100400    285.82304   -198.45352    46815.457   -14557.521    1332.5033   -15890.024    3025.8016 
  100450    277.55111   -123.02327    46735.826   -14537.518    1293.9396   -15831.457    3020.9988 
  100500    292.48282     71.59751    46799.835   -14478.268    1363.5511    -15841.82    3026.0664 
  100550    278.59217    71.280153    46909.959    -14546.11     1298.793   -15844.903    3032.5285 
  100600    284.17881    244.31177    46796.192   -14548.587    1324.8379   -15873.425    3029.3448 
  100650     279.5012   -113.58892    46842.038   -14598.379     1303.031    -15901.41    3031.6398 
  100662    274.91962   -143.74898    46812.564   -14607.165    1281.6717   -15888.837    3029.2526 
Loop time of 88.3934 on 10 procs for 100000 steps with 1565 atoms

Performance: 977.449 ns/day, 0.025 hours/ns, 1131.306 timesteps/s
99.2% CPU use with 10 MPI tasks x no OpenMP threads

MPI task timing breakdown:
Section |  min time  |  avg time  |  max time  |%varavg| %total
---------------------------------------------------------------
Pair    | 60.372     | 70.574     | 73.805     |  45.8 | 79.84
Neigh   | 3.1748     | 3.9321     | 4.119      |  14.0 |  4.45
Comm    | 6.5936     | 10.177     | 20.755     | 124.3 | 11.51
Output  | 0.085077   | 0.093659   | 0.15498    |   6.7 |  0.11
Modify  | 2.6515     | 3.0965     | 3.5075     |  17.4 |  3.50
Other   |            | 0.5199     |            |       |  0.59

Nlocal:    156.5 ave 161 max 149 min
Histogram: 1 0 0 0 0 4 1 3 0 1
Nghost:    756 ave 768 max 734 min
Histogram: 1 0 0 0 1 3 0 2 1 2
Neighs:    0 ave 0 max 0 min
Histogram: 10 0 0 0 0 0 0 0 0 0
FullNghs:  5238.4 ave 5471 max 4931 min
Histogram: 1 0 0 0 3 2 1 2 0 1

Total # of neighbors = 52384
Ave neighs/atom = 33.4722
Neighbor list builds = 13002
Dangerous builds = 0

undump              1
reset_timestep      0
#unfix               2
#unfix               3
#unfix               4


################################################
#######           Insert Ice           #########
################################################

log                 log.${NAME}.eq_all
log                 log.setup_atoms_280K_00.eq_all
