LAMMPS data file via write_data, version 12 Dec 2018, timestep = 100000

800 atoms
1 atom types

-9.8304547192656244e-02 2.4916304547192745e+01 xlo xhi
-1.2288068399043262e-01 3.1145380683989679e+01 ylo yhi
-1.2288068399043262e-01 3.1145380683989679e+01 zlo zhi

Masses

1 18.015

Atoms # atomic

5 1 1.2972015730220756e+00 1.5938262846681110e+00 1.4107903053277850e+00 0 0 0
2 1 2.4772659732301129e+01 2.9446413115233625e+00 3.0149374618810958e+00 -1 0 0
3 1 2.9880590571559056e+00 1.7910155063071898e-01 2.8516818768820809e+00 0 0 0
73 1 1.2426058506408163e+01 1.2600721253888203e+01 2.5515508765210915e-03 0 0 0
7 1 4.8083015790266117e+00 1.7562615789025811e+00 4.5137571554224882e+00 0 0 0
10 1 6.3751249770819109e+00 3.2368272883846729e+00 2.6565776231887042e+00 0 0 0
33 1 -3.2973542709079595e-02 6.1146852673909136e+00 1.4044179374506210e-01 0 0 0
13 1 7.7744418178636758e+00 1.2718396134780092e+00 1.1549930075537969e+00 0 0 0
405 1 6.2873599774786584e+00 1.5441009554927904e+01 2.9147486465626198e+00 0 0 0
15 1 1.0809692593441124e+01 1.4266624156698406e+00 4.5591439750115805e+00 0 0 0
18 1 1.2246694187906119e+01 3.2998261007001277e+00 2.8715803299997931e+00 0 0 0
21 1 1.3557863427398885e+01 1.5031821858095149e+00 8.7963048890128981e-01 0 0 0
23 1 1.6820662069220006e+01 1.3383966906537115e+00 4.4482150874365418e+00 0 0 0
116 1 3.1405484903931598e+00 9.0421886727293881e+00 5.8987840312736939e+00 0 0 0
26 1 1.8550533256967199e+01 2.7080523686456859e+00 2.8311320903761690e+00 0 0 0
29 1 2.0526159792657921e+01 1.3666493291178545e+00 1.2875389591721527e+00 0 0 0
31 1 2.3172421396595439e+01 1.5507124257905229e+00 4.8541240669177395e+00 0 0 0
153 1 1.2650566939364902e+01 1.2110228811261866e+01 6.0125487252386929e+00 0 0 0
6 1 1.1614288733017302e+00 4.4332403534607119e+00 4.6398446557723698e+00 0 0 0
35 1 2.7454742127995728e+00 6.0749793580102951e+00 3.2443503369509639e+00 0 0 0
37 1 1.5526498215014930e+00 7.6703842157136322e+00 1.4619710912931221e+00 0 0 0
68 1 4.6350078571282207e+00 1.3804822591813863e+01 4.2680935295308338e+00 0 0 0
8 1 4.4234864298677383e+00 4.7063199747212110e+00 1.7100742921829148e+00 0 0 0
124 1 9.3600674285014644e+00 9.1802354256300713e+00 5.9801968786682442e+00 0 0 0
14 1 7.7280600695951502e+00 4.6402227269899452e+00 4.1416221717121404e+00 0 0 0
43 1 9.1393520167992452e+00 6.4698500293510941e+00 2.9217646854441046e+00 0 0 0
16 1 1.0698687988551084e+01 4.7970855282168703e+00 1.4529185973142587e+00 0 0 0
22 1 1.4038773605131603e+01 4.5038856101882656e+00 4.4081240628254186e+00 0 0 0
53 1 1.3862374547055703e+01 7.7973890605150942e+00 1.4531363186583068e+00 0 0 0
80 1 2.3080302796330336e+01 1.4060239698977806e+01 4.3976743221333132e+00 0 0 0
24 1 1.7161639778461634e+01 4.3185598423627294e+00 1.0657335503909509e+00 0 0 0
51 1 1.5625492904735022e+01 6.0951805632685288e+00 2.8809525397752802e+00 0 0 0
55 1 1.7339162712297778e+01 7.9533195050797723e+00 4.2061446579711133e+00 0 0 0
30 1 2.0046750489541623e+01 4.5195077033511808e+00 4.5965900146406398e+00 0 0 0
61 1 2.0326410664785968e+01 7.4523720248613055e+00 1.2132368828870539e+00 0 0 0
59 1 2.1716195042981816e+01 5.8799491296860156e+00 3.1947202688181306e+00 0 0 0
32 1 2.3424195054918847e+01 4.6201372839824479e+00 1.5018629131499761e+00 0 0 0
63 1 2.3370317433908845e+01 7.8863822650694075e+00 4.5450334484900710e+00 0 0 0
72 1 1.0785157618537230e+01 1.3827385818475834e+01 4.1190040310949261e+00 0 0 0
38 1 1.3003356768508569e+00 1.0564943918172773e+01 4.3245765225646569e+00 0 0 0
39 1 4.4810295032554945e+00 7.9225407430642338e+00 4.2006552715897811e+00 0 0 0
40 1 4.5452062607452808e+00 1.1131564587621819e+01 1.4834577933752913e+00 0 0 0
42 1 6.0882494189929499e+00 9.5198172612106688e+00 2.8278786241603231e+00 0 0 0
45 1 7.3681504087157119e+00 7.9883303392006049e+00 1.3790520049892296e+00 0 0 0
46 1 7.5348740795849896e+00 1.0959791471564110e+01 4.5617078140833742e+00 0 0 0
76 1 1.7338135169243202e+01 1.3828916859663268e+01 5.0091391388338247e+00 0 0 0
78 1 2.1522017962379024e+01 1.2417600395655285e+01 2.9834514451274270e+00 0 0 0
47 1 1.0979119168660507e+01 7.5387546571002284e+00 4.0970219141136246e+00 0 0 0
48 1 1.0741224597580585e+01 1.0875959930844274e+01 1.3771748605175116e+00 0 0 0
50 1 1.2218903643171176e+01 9.6225706504823467e+00 3.0634529191011777e+00 0 0 0
54 1 1.4387237899869506e+01 1.0805314861924890e+01 4.4896770481789412e+00 0 0 0
74 1 1.5944271445759339e+01 1.2397960324095733e+01 2.8529639406299392e+00 0 0 0
56 1 1.7199779302033733e+01 1.0873904367878284e+01 1.2389003724248391e+00 0 0 0
71 1 7.7741218612776066e+00 1.4071120538051266e+01 8.5437940007942048e-01 0 0 0
62 1 2.0200985458735140e+01 1.0738157546215675e+01 4.5134314879659376e+00 0 0 0
58 1 1.8908995638232447e+01 9.4077962521358458e+00 2.4850868882302555e+00 0 0 0
34 1 2.4673662758408760e+01 9.1213527069016642e+00 2.6190524884941411e+00 -1 0 0
64 1 2.3152262546388698e+01 1.1314505740442559e+01 1.1296293100441339e+00 0 0 0
79 1 2.0009172248543287e+01 1.3806173955267672e+01 1.2929375700464349e+00 0 0 0
70 1 8.9377283889258017e+00 1.2556569605126342e+01 2.9620521612663646e+00 0 0 0
75 1 1.4475673435396757e+01 1.4004142132486566e+01 1.2772090519150270e+00 0 0 0
67 1 1.6633831115450082e+00 1.4353543762983325e+01 1.4032997511084326e+00 0 0 0
66 1 2.6565100448504881e+00 1.2409366876176552e+01 2.9228934538827143e+00 0 0 0
413 1 1.8818538857215280e+01 1.5491436275208324e+01 3.3118508623278600e+00 0 0 0
145 1 1.2951168072305563e-01 1.2488683740485655e+01 6.0951533154009239e+00 0 0 0
409 1 1.2745596342528247e+01 1.5334210587088464e+01 2.6611576250516502e+00 0 0 0
137 1 1.8652968107289766e+01 6.2613561782766256e+00 6.0771064225810445e+00 0 0 0
490 1 1.5486041875354877e+01 1.5282130148573286e+01 5.9553767690929771e+00 0 0 0
140 1 2.1846432169643379e+01 9.3986872270294253e+00 6.1071991518948554e+00 0 0 0
486 1 9.1020620808020194e+00 1.5314647188932010e+01 5.7176341026316422e+00 0 0 0
92 1 9.4549485407326834e+00 2.9467011950513151e+00 5.8538241535415052e+00 0 0 0
132 1 1.5889933807573936e+01 9.0450760121865166e+00 6.0369039794239399e+00 0 0 0
121 1 6.0793310984753379e+00 6.0111462066380401e+00 5.9965278084102902e+00 0 0 0
84 1 2.9122568858649727e+00 3.0722498768423070e+00 5.8563503090206179e+00 0 0 0
89 1 6.3291876917505476e+00 4.6487663488393366e-02 5.9516269469881244e+00 0 0 0
129 1 1.2559085832825161e+01 6.1846698716667285e+00 5.9982821949990406e+00 0 0 0
41 1 5.8579025930263420e+00 6.1763581044358906e+00 -2.7189544837405322e-02 0 0 0
52 1 1.5515324430016252e+01 9.2902450859006489e+00 -4.3786428195517146e-02 0 0 0
4 1 3.2674714048799647e+00 2.9474410790980148e+00 1.4006674645713701e-01 0 0 0
85 1 1.5950366992002631e+00 1.5920912574826036e+00 7.9724601765701362e+00 0 0 0
87 1 5.2627173923303356e+00 1.1982828946914326e+00 1.0629474819699928e+01 0 0 0
90 1 6.1627811214632562e+00 3.1682563658296803e+00 9.3601276652187604e+00 0 0 0
93 1 7.8977123515915251e+00 1.3445765869526773e+00 7.8945681470382265e+00 0 0 0
485 1 6.1401686431504956e+00 1.5312176338333604e+01 9.4050481187753245e+00 0 0 0
95 1 1.1537268340996640e+01 1.2080942491591000e+00 1.0708492431808523e+01 0 0 0
98 1 1.2649131417687919e+01 3.4242441374829746e+00 8.9457175409817218e+00 0 0 0
101 1 1.3981622546253353e+01 1.2965209731567617e+00 7.8694178940385910e+00 0 0 0
103 1 1.7271715338421977e+01 1.1302670495106601e+00 1.1008369627800523e+01 0 0 0
566 1 9.2470246592685026e+00 1.5094607936009016e+01 1.2241245993350161e+01 0 0 0
106 1 1.8493195379769027e+01 2.8998586701793374e+00 9.3804514898306870e+00 0 0 0
109 1 1.9682441785424544e+01 1.0804179782713432e+00 7.9474776651200312e+00 0 0 0
82 1 2.4722264600898153e+01 2.8610048190944504e+00 9.7907201612739421e+00 -1 0 0
233 1 1.2032003651047473e+01 1.2373861630558338e+01 1.1985363718017981e+01 0 0 0
113 1 2.4616125056311272e+01 6.1841963629711367e+00 6.1856836067888956e+00 -1 0 0
111 1 2.3154130862074695e+01 1.2317781844079689e+00 1.0910317242416303e+01 0 0 0
212 1 1.5620606931119813e+01 9.4314703942444442e+00 1.2321446462626794e+01 0 0 0
86 1 1.6253340590266960e+00 4.5415753966930446e+00 1.1051405402035911e+01 0 0 0
115 1 3.1606802843129040e+00 5.8200883647514932e+00 9.1169308687144905e+00 0 0 0
117 1 1.4529500111749933e+00 7.3117400631547316e+00 7.5675322197447601e+00 0 0 0
157 1 1.8847156108548369e+01 1.2375842879119938e+01 6.2542174079384170e+00 0 0 0
88 1 4.8145521074376179e+00 4.4031187783365011e+00 7.5199362808102981e+00 0 0 0
150 1 9.5231820735229000e+00 1.1838662642862499e+01 9.2410992395635994e+00 0 0 0
94 1 8.0222032651352393e+00 3.9623217093673642e+00 1.0869212835793849e+01 0 0 0
123 1 9.1186689028668990e+00 6.0229292761822153e+00 9.0424809049805575e+00 0 0 0
96 1 1.0817620633888934e+01 4.4009489396436248e+00 7.4116593472901942e+00 0 0 0
102 1 1.3974537676620580e+01 4.5510580071215267e+00 1.0912330366151922e+01 0 0 0
104 1 1.7128112164010602e+01 4.6022835731798706e+00 7.5922019115484130e+00 0 0 0
131 1 1.5412854657034320e+01 6.0996099843828135e+00 9.1652986649470130e+00 0 0 0
135 1 1.7157207060607519e+01 7.7108072193132955e+00 1.1095903096232728e+01 0 0 0
110 1 1.9933481311551340e+01 4.6307852578344209e+00 1.0694872423974502e+01 0 0 0
141 1 2.0175363899831815e+01 7.8214195085331841e+00 7.7036477097986404e+00 0 0 0
151 1 7.7576386535242836e+00 1.3779364409443934e+01 8.0004288007658531e+00 0 0 0
156 1 1.7065591257847892e+01 1.3880834948795551e+01 1.0887627684872038e+01 0 0 0
139 1 2.1467882926022504e+01 6.1934594341576252e+00 9.1831227240048765e+00 0 0 0
112 1 2.2984377218707849e+01 4.3399418633979998e+00 7.8508903962433250e+00 0 0 0
143 1 2.3001999447597775e+01 7.4386427724686142e+00 1.0883253905036382e+01 0 0 0
481 1 2.4745848421283227e+01 1.5202484504385023e+01 9.2944167013877976e+00 -1 0 0
155 1 1.3847345531023441e+01 1.3795743745821095e+01 7.4509974503520233e+00 0 0 0
118 1 1.5096921388112614e+00 1.0393097761990367e+01 1.0958341963613892e+01 0 0 0
119 1 4.7578969342421615e+00 7.0882232327330996e+00 1.0523460416706181e+01 0 0 0
120 1 4.5674141162371056e+00 1.0407812143166680e+01 7.5348970122926131e+00 0 0 0
122 1 6.2407926282178146e+00 8.9067470965208297e+00 8.9683970798153574e+00 0 0 0
125 1 7.8020081424332854e+00 7.3408248023523264e+00 7.5592629188841958e+00 0 0 0
126 1 7.6550379926206933e+00 1.0418574195952544e+01 1.0649069244835214e+01 0 0 0
127 1 1.0411931729349352e+01 7.5767994787735891e+00 1.0833439459325414e+01 0 0 0
128 1 1.1108642832848320e+01 1.0733377159623078e+01 7.5163565579796376e+00 0 0 0
130 1 1.2514856363599359e+01 9.1298021755420855e+00 9.0233492478852693e+00 0 0 0
134 1 1.3935086435339009e+01 1.0931026997213646e+01 1.0684768333982179e+01 0 0 0
133 1 1.4175047867805162e+01 7.7933296839414394e+00 7.4439405063253270e+00 0 0 0
136 1 1.6970299348329114e+01 1.0736589325052069e+01 8.1219831023403941e+00 0 0 0
142 1 2.0128593251161426e+01 1.1027033735629637e+01 1.0912962614377886e+01 0 0 0
138 1 1.9051120242046281e+01 9.4747745724341463e+00 9.3931883722015908e+00 0 0 0
114 1 -2.4562246195046100e-02 8.9182618898485160e+00 9.1998671399637697e+00 0 0 0
144 1 2.3533748216748528e+01 1.0682287075242520e+01 7.7361003654003051e+00 0 0 0
154 1 1.5570412491875159e+01 1.2553631208922015e+01 9.0840842081630946e+00 0 0 0
146 1 2.9485539429736911e+00 1.1915665952555418e+01 9.2483213011477865e+00 0 0 0
147 1 1.3488371832910244e+00 1.3743238352009103e+01 7.7492177501048909e+00 0 0 0
148 1 4.5132842238085669e+00 1.3565165152961555e+01 1.0515720136757027e+01 0 0 0
160 1 2.3444651998338124e+01 1.3827768771319068e+01 1.0969911409024904e+01 0 0 0
159 1 2.0508020014706773e+01 1.4189059943244279e+01 7.7234517378002909e+00 0 0 0
158 1 2.1959824541753186e+01 1.2599438866632862e+01 9.1536653773075773e+00 0 0 0
152 1 1.0748611699404512e+01 1.3880100009695756e+01 1.0477047149358903e+01 0 0 0
489 1 1.2213205613397541e+01 1.5261226877032797e+01 8.6315953301936705e+00 0 0 0
193 1 2.4760197494714767e+01 5.7847133404450544e+00 1.2275315507889356e+01 -1 0 0
149 1 5.7424645672160510e+00 1.2450028572085152e+01 6.4853567567238617e+00 0 0 0
196 1 3.4630570501168090e+00 8.8777445575522620e+00 1.2197552064701483e+01 0 0 0
188 1 2.1315797772915879e+01 2.8930391504164041e+00 1.2082399598456728e+01 0 0 0
164 1 3.3580408633292946e+00 2.6671746399664817e+00 1.2264980541256044e+01 0 0 0
229 1 6.0881488357459501e+00 1.2167973331697969e+01 1.2263601607083308e+01 0 0 0
220 1 2.1558907152063043e+01 9.3015477471940819e+00 1.2286304529410508e+01 0 0 0
204 1 8.8486532422284245e+00 9.1172946342865711e+00 1.2340603510694127e+01 0 0 0
562 1 3.0936317065049082e+00 1.5449102744981115e+01 1.2225990805536206e+01 0 0 0
172 1 9.7814380093089657e+00 2.5481579145749884e+00 1.2357693408140671e+01 0 0 0
108 1 2.1186089597455442e+01 2.5733291693457381e+00 6.3183213222912427e+00 0 0 0
100 1 1.5548618650516881e+01 2.9617081771508884e+00 6.1760196863162653e+00 0 0 0
482 1 3.1030376720175643e+00 1.5165711270246009e+01 6.2332285531519194e+00 0 0 0
165 1 1.5782542797907559e+00 1.5253567043169107e+00 1.4076458156360639e+01 0 0 0
180 1 1.5717391600176612e+01 2.8570162547545284e+00 1.2462116333966753e+01 0 0 0
162 1 2.4822012939864535e+01 3.1220224027012833e+00 1.5647239868068679e+01 -1 0 0
561 1 2.4899203133548475e+01 1.5460436983497127e+01 1.5588940962462376e+01 -1 0 0
570 1 1.5204861603714029e+01 1.5315966724516448e+01 1.2417192109445244e+01 0 0 0
167 1 4.8167556061044925e+00 1.6398339054245661e+00 1.6889005066254143e+01 0 0 0
170 1 6.4500930906209746e+00 3.0204697749215161e+00 1.5389584918391314e+01 0 0 0
569 1 1.2305632008607102e+01 1.5345832565496908e+01 1.5194014472303870e+01 0 0 0
173 1 8.1264905462063926e+00 1.2531086168477228e+00 1.4300242782670649e+01 0 0 0
240 1 2.3412948388253994e+01 1.3563445766713114e+01 1.6904599192846291e+01 0 0 0
175 1 1.1010562604689079e+01 1.8813427589488607e+00 1.7235573166538408e+01 0 0 0
178 1 1.2452240886529969e+01 3.2376906821537283e+00 1.5475053031723119e+01 0 0 0
181 1 1.4214786010821488e+01 1.4167861613569366e+00 1.4201850724171482e+01 0 0 0
217 1 1.8383058896935893e+01 6.0300364200926619e+00 1.2693997015760383e+01 0 0 0
183 1 1.7020847115605186e+01 1.4294528320557343e+00 1.7203534585379217e+01 0 0 0
239 1 1.9881208640092403e+01 1.3975558443737139e+01 1.4196355404735625e+01 0 0 0
186 1 1.8502300217047285e+01 3.2266718337704470e+00 1.5930548890986548e+01 0 0 0
189 1 2.0149340179307529e+01 1.9838731728207870e+00 1.4497611597767255e+01 0 0 0
191 1 2.3286829281430762e+01 1.3665677466413977e+00 1.7275659176252319e+01 0 0 0
230 1 9.0439389249153344e+00 1.2312085581970310e+01 1.5229631777174971e+01 0 0 0
166 1 1.2511864554724128e+00 4.4725954022061263e+00 1.7090882966168898e+01 0 0 0
195 1 2.6979017429950791e+00 6.2828597565923294e+00 1.5592631765101633e+01 0 0 0
197 1 8.4871089885937900e-01 7.5797905325989507e+00 1.3667408677661431e+01 0 0 0
168 1 4.3056805379770422e+00 4.4992785332447705e+00 1.3941250643702505e+01 0 0 0
174 1 7.6482149587068351e+00 4.5454811853384003e+00 1.7103434810768384e+01 0 0 0
203 1 9.2276356044611418e+00 6.2526097961005078e+00 1.5582676906176861e+01 0 0 0
205 1 7.3790705042023834e+00 7.4470738970738131e+00 1.4285614360745578e+01 0 0 0
176 1 1.0730795651517811e+01 4.6270599368347511e+00 1.3915275246303901e+01 0 0 0
182 1 1.3915181894164039e+01 4.7354762368100003e+00 1.7151621031112654e+01 0 0 0
234 1 1.5184712847272017e+01 1.2287560828123405e+01 1.5409675044620844e+01 0 0 0
184 1 1.7155985332999585e+01 4.6076198467039102e+00 1.4290879701085021e+01 0 0 0
211 1 1.5550076012865572e+01 6.3478982221098050e+00 1.5611704942108119e+01 0 0 0
574 1 2.1494547251517417e+01 1.5299291533772577e+01 1.2634501040625921e+01 0 0 0
190 1 2.0394825119232380e+01 4.6456711630756544e+00 1.7362779080136363e+01 0 0 0
221 1 2.0076870140239016e+01 7.9122942032394761e+00 1.4179229411275569e+01 0 0 0
219 1 2.1723357070840592e+01 6.2671299910637241e+00 1.5497043914647282e+01 0 0 0
192 1 2.2779414722438084e+01 4.4681566865604267e+00 1.3823647393871230e+01 0 0 0
223 1 2.2880807363181205e+01 7.7377847392012979e+00 1.6953520218148256e+01 0 0 0
161 1 3.5678333460772649e-02 3.7008328531690921e-02 1.2501874783726844e+01 0 0 0
198 1 1.2077250488214313e+00 1.0510286203433886e+01 1.7129745464746456e+01 0 0 0
237 1 1.8627278058179080e+01 1.2291239057900706e+01 1.2805726271496631e+01 0 0 0
199 1 4.4291538961411741e+00 7.5508515635545752e+00 1.7061992533778501e+01 0 0 0
200 1 4.7028552937876649e+00 1.0753336122222912e+01 1.3823094089338976e+01 0 0 0
202 1 5.7683981814693412e+00 9.4501830376222085e+00 1.5794631702579506e+01 0 0 0
206 1 7.4032502982360233e+00 1.1055221297703424e+01 1.7166423528293194e+01 0 0 0
208 1 1.0602819683603487e+01 1.0777843410525179e+01 1.3696623710499516e+01 0 0 0
171 1 9.3720495364015655e+00 1.5608911178896073e-01 1.6196404213378109e+01 0 0 0
228 1 4.6071070044770321e+00 1.3656625706215438e+01 1.7041475785525790e+01 0 0 0
213 1 1.4009013604959041e+01 8.0161934749782446e+00 1.3928971902053332e+01 0 0 0
207 1 1.0807337268160417e+01 8.2360546838576845e+00 1.6925060023339043e+01 0 0 0
210 1 1.2285833395900658e+01 9.5047859617908692e+00 1.5421455983750340e+01 0 0 0
214 1 1.3924343839191211e+01 1.0738594233038503e+01 1.6905691169596999e+01 0 0 0
236 1 1.6660134643446057e+01 1.4114206715995364e+01 1.6926464637756709e+01 0 0 0
215 1 1.7048580352749880e+01 7.4949450172164411e+00 1.7684111205076242e+01 0 0 0
216 1 1.7141941643925044e+01 1.0838246064085631e+01 1.3988358626134135e+01 0 0 0
235 1 1.3626015832289063e+01 1.3709896660967560e+01 1.3668002104069233e+01 0 0 0
218 1 1.8284101230728417e+01 8.8902727843114082e+00 1.5448351055326697e+01 0 0 0
222 1 1.9660817323220563e+01 1.0437737454625001e+01 1.6762582852851665e+01 0 0 0
194 1 2.4707507930863926e+01 9.1359212217871910e+00 1.5388412228082752e+01 -1 0 0
224 1 2.3051676173229630e+01 1.0704824063536304e+01 1.3998709437215027e+01 0 0 0
232 1 1.0640159453041598e+01 1.4058125531380817e+01 1.6917436548049452e+01 0 0 0
231 1 7.4582209677338263e+00 1.3821950072656957e+01 1.3841547817983251e+01 0 0 0
227 1 1.5290149640667572e+00 1.3853835450503690e+01 1.3998519299072884e+01 0 0 0
226 1 2.7843673111905525e+00 1.1784652647724759e+01 1.5592937070965542e+01 0 0 0
238 1 2.1612392087477161e+01 1.2344368419132753e+01 1.5447499796907017e+01 0 0 0
565 1 6.2038586624104086e+00 1.5211268847446089e+01 1.5667252831252299e+01 0 0 0
317 1 1.8501151762245833e+01 1.2515868322619612e+01 1.8163233056123815e+01 0 0 0
654 1 2.1667850876676098e+01 1.5326407551151377e+01 1.8295906623498261e+01 0 0 0
276 1 2.6158410578792584e+00 8.9013480415505004e+00 1.8635564949608060e+01 0 0 0
300 1 2.1464748901742020e+01 9.4969509252421247e+00 1.8430983729179303e+01 0 0 0
289 1 1.2398601493233940e+01 6.3953589487161411e+00 1.8557511442197026e+01 0 0 0
292 1 1.5657914940276635e+01 9.3297461291661872e+00 1.8636035035400589e+01 0 0 0
244 1 3.0157167063327055e+00 2.7851617810384064e+00 1.8582531966753628e+01 0 0 0
249 1 6.0530691792685269e+00 6.4054228038986916e-03 1.8613615287886951e+01 0 0 0
642 1 3.0337532719738354e+00 1.5309846486565011e+01 1.8601178111746428e+01 0 0 0
169 1 6.4277195014468091e+00 3.8929118588180850e-02 1.2646419494967773e+01 0 0 0
225 1 3.8310040010332358e-01 1.2006016183963023e+01 1.2457832591046145e+01 0 0 0
209 1 1.2387601465241461e+01 6.1938958465534384e+00 1.2426546042601080e+01 0 0 0
201 1 5.9620572302185062e+00 5.8061703240972466e+00 1.2487202647212502e+01 0 0 0
245 1 1.7413603575066279e+00 1.3112700749851403e+00 2.0454097629464698e+01 0 0 0
309 1 5.9819373599630019e+00 1.2228385566651253e+01 1.8901366709083526e+01 0 0 0
267 1 2.1909276694022530e+01 -8.3005856889533269e-02 2.1990385144251803e+01 0 0 0
247 1 4.7612490372435614e+00 1.6047827421053229e+00 2.3299875347852542e+01 0 0 0
250 1 6.2247134007488940e+00 3.2991572623886567e+00 2.1396279977697198e+01 0 0 0
313 1 1.2589547111895026e+01 1.2109553874957808e+01 1.8740301166736906e+01 0 0 0
253 1 7.9163115543935287e+00 1.6007494049012532e+00 2.0106873446752964e+01 0 0 0
312 1 1.0905723291516495e+01 1.4386256098346848e+01 2.3442211880686315e+01 0 0 0
730 1 1.5767209060630540e+01 1.5445182967651608e+01 2.4599664903894706e+01 0 0 0
318 1 2.1836231333888385e+01 1.2877065111107965e+01 2.2021356197688583e+01 0 0 0
255 1 1.0805271031868109e+01 1.5210338708184996e+00 2.3308932408365642e+01 0 0 0
258 1 1.2093615909181102e+01 3.3429179984332866e+00 2.1990422874733405e+01 0 0 0
261 1 1.3642252472735436e+01 1.2808898674908880e+00 2.0622319510335409e+01 0 0 0
263 1 1.6926652110490302e+01 1.4543952261289783e+00 2.3029314244969925e+01 0 0 0
266 1 1.8814576412420259e+01 2.9356359654929292e+00 2.1846969746298079e+01 0 0 0
269 1 2.0559645867783672e+01 1.7606364759287876e+00 2.0277389118444255e+01 0 0 0
320 1 2.3758994413172978e+01 1.4283705510162248e+01 2.3370095479145093e+01 0 0 0
242 1 3.6748246282630426e-01 2.6873885153158810e+00 2.2026203645914677e+01 0 0 0
271 1 2.3659917696851728e+01 1.3791511822371278e+00 2.3593618635299087e+01 0 0 0
649 1 1.2755348540163679e+01 1.5390946101756780e+01 2.1762819747058302e+01 0 0 0
311 1 7.6394209150776380e+00 1.3754106812533939e+01 2.0358033716824885e+01 0 0 0
246 1 1.4215565905153063e+00 4.8460110950085511e+00 2.3431773340270659e+01 0 0 0
275 1 2.8252535248114374e+00 6.1253202511356246e+00 2.1912254228274868e+01 0 0 0
277 1 1.1239285168299771e+00 7.4319706222649868e+00 2.0330410352781065e+01 0 0 0
310 1 9.4597650862104974e+00 1.2521027549189427e+01 2.1981663823815929e+01 0 0 0
248 1 4.1786874248794996e+00 4.7716612792502806e+00 2.0203993255696233e+01 0 0 0
243 1 3.4469108221813962e+00 -3.7616600181049800e-02 2.1941959256977604e+01 0 0 0
281 1 6.0143107347640337e+00 6.2071839836766518e+00 1.8776071486606654e+01 0 0 0
254 1 7.9586265443209285e+00 4.9540256825761828e+00 2.3268802588888839e+01 0 0 0
283 1 9.1605269643849478e+00 6.8746082904206602e+00 2.1658872584116388e+01 0 0 0
314 1 1.5662463597145088e+01 1.2277947881706659e+01 2.1716833658178800e+01 0 0 0
256 1 1.0571269556589389e+01 5.1940281558488373e+00 2.0394365178789016e+01 0 0 0
262 1 1.3913883027237780e+01 4.8122621891621167e+00 2.3202047330429487e+01 0 0 0
264 1 1.6942687236252027e+01 4.8013993990640218e+00 2.0358805711962930e+01 0 0 0
291 1 1.5410545551697863e+01 6.4440126240558664e+00 2.1705391913069967e+01 0 0 0
270 1 2.0554568094958896e+01 4.6218056176047986e+00 2.3640724292408144e+01 0 0 0
272 1 2.3767084681548383e+01 4.5015024206533001e+00 2.0620699560497158e+01 0 0 0
299 1 2.2049728817158702e+01 6.2254738022716589e+00 2.1849145566240963e+01 0 0 0
303 1 2.3394683820918388e+01 7.8315549996255722e+00 2.3414629693537059e+01 0 0 0
316 1 1.7124291010989651e+01 1.3942030926009283e+01 2.3218865752055798e+01 0 0 0
278 1 1.1283793994132623e+00 1.0729016509868021e+01 2.3045087802146682e+01 0 0 0
279 1 4.6297122715536467e+00 7.6937872884815102e+00 2.3547018295697512e+01 0 0 0
280 1 4.0589326155498258e+00 1.0632299313044136e+01 2.0288613782656554e+01 0 0 0
282 1 5.9006473311085212e+00 9.4138297556545378e+00 2.2033831465132067e+01 0 0 0
285 1 7.4704441298033322e+00 8.0209436526971061e+00 2.0207626793358216e+01 0 0 0
286 1 7.5051545952799570e+00 1.0882056226659087e+01 2.3139003091785284e+01 0 0 0
287 1 1.0904319071560655e+01 7.9997687264088970e+00 2.3464364508709188e+01 0 0 0
288 1 1.0959268893491036e+01 1.0825273815660214e+01 2.0240539398521399e+01 0 0 0
290 1 1.2221144052354704e+01 9.3705319232225612e+00 2.1729401436392379e+01 0 0 0
294 1 1.3863175849503365e+01 1.0868065854827558e+01 2.3126638872149321e+01 0 0 0
293 1 1.3896097509151437e+01 7.8791649008019888e+00 2.0085469921080971e+01 0 0 0
295 1 1.7127143272768592e+01 8.1492063648668243e+00 2.3250039102140093e+01 0 0 0
296 1 1.7222791794799448e+01 1.1026467211009045e+01 1.9958223259007909e+01 0 0 0
301 1 2.0122906347040207e+01 7.9303492978843977e+00 2.0247256148770020e+01 0 0 0
298 1 1.8663937494184125e+01 9.6142312733335373e+00 2.1908075258654456e+01 0 0 0
302 1 2.0377043093826984e+01 1.1009255790275356e+01 2.3323260142450451e+01 0 0 0
274 1 2.4748603177851621e+01 9.1953026402263429e+00 2.1602639024671845e+01 -1 0 0
304 1 2.3161645844887182e+01 1.0968277081494548e+01 2.0285773042315299e+01 0 0 0
319 1 2.0276087495969612e+01 1.4063612988680456e+01 2.0083728891064531e+01 0 0 0
306 1 2.5972768664342403e+00 1.2373733776525263e+01 2.1774892651313422e+01 0 0 0
307 1 1.4001887311548293e+00 1.3915619722712291e+01 2.0112911435228177e+01 0 0 0
315 1 1.4183458497666596e+01 1.3817950148285778e+01 2.0376615259645277e+01 0 0 0
308 1 4.2945285148854184e+00 1.3834103017388566e+01 2.3286180362614218e+01 0 0 0
251 1 9.4557290186328480e+00 2.8091172130302211e-02 2.1683125671523449e+01 0 0 0
646 1 9.2609671316520270e+00 1.5277026742391655e+01 1.8657933322802620e+01 0 0 0
337 1 1.2483971742015509e+01 3.5469863904197096e-02 2.4663580998275087e+01 0 0 0
385 1 2.4891835748264299e+01 1.2240017213603076e+01 2.4572288124353548e+01 -1 0 0
345 1 1.8681837833187807e+01 -5.1577938744926902e-02 2.4740484876364938e+01 0 0 0
653 1 1.9173704902780628e+01 1.5465030000648342e+01 2.2126984867978791e+01 0 0 0
340 1 1.5516004391992391e+01 3.0668123073347244e+00 2.4757690779529014e+01 0 0 0
361 1 6.1343060022072695e+00 5.9636060835582887e+00 2.4617931485446796e+01 0 0 0
241 1 2.4889811070734996e+01 -2.1202522111563538e-02 1.8991800465010876e+01 -1 0 0
252 1 9.4360275730611338e+00 3.4125367317815178e+00 1.8679582043186265e+01 0 0 0
380 1 2.1696922388410194e+01 9.2529399509814123e+00 2.4554396678279460e+01 0 0 0
324 1 2.9511757654822848e+00 3.0856556927360419e+00 2.4735617092609921e+01 0 0 0
268 1 2.2040216942465321e+01 3.1832718057586002e+00 1.8702213179376393e+01 0 0 0
297 1 1.8804604615712520e+01 5.9353820583401031e+00 1.8848844445942476e+01 0 0 0
260 1 1.5354796915070148e+01 2.8423499735941360e+00 1.8783948441455429e+01 0 0 0
372 1 1.5562340076487553e+01 9.5123699700557349e+00 2.4859287422361156e+01 0 0 0
265 1 1.8976601765965363e+01 1.7052023457056720e-01 1.8681442105580345e+01 0 0 0
273 1 2.4834133681607284e+01 6.1123661870719017e+00 1.8794349733222958e+01 -1 0 0
257 1 1.2243206856318503e+01 7.9119297472448086e-02 1.8664072531459247e+01 0 0 0
305 1 -7.3885837441032720e-02 1.2291732012755586e+01 1.8777287098299432e+01 0 0 0
284 1 9.1938895071015292e+00 9.3592156079529776e+00 1.8646825035339418e+01 0 0 0
325 1 1.7473469846194876e+00 1.6484152805631813e+00 2.6626116383776100e+01 0 0 0
322 1 -1.2038950014307340e-02 2.9204618375489906e+00 2.7983094190442749e+01 0 0 0
327 1 4.9097888158423864e+00 1.5125440887985089e+00 2.9596469623922289e+01 0 0 0
330 1 6.1401813380999037e+00 2.8006241902858533e+00 2.7678078242600101e+01 0 0 0
353 1 2.4861713728710804e+01 6.1371804887612971e+00 2.4986126191401418e+01 -1 0 0
333 1 7.7346925397508821e+00 1.2989508366372879e+00 2.6320522441150779e+01 0 0 0
57 1 1.8481727901787160e+01 5.9968276475202567e+00 3.1011042008794071e+01 0 0 -1
60 1 2.1429300509970126e+01 9.4664530795033528e+00 3.1111301992157202e+01 0 0 -1
335 1 1.0881273914544144e+01 1.2203008011095184e+00 2.9285685074530498e+01 0 0 0
338 1 1.2492025347823082e+01 2.9253354054844469e+00 2.7937696704641198e+01 0 0 0
341 1 1.4157529474646330e+01 1.4346140014143685e+00 2.6343920946878207e+01 0 0 0
343 1 1.7194989058462930e+01 1.3285696519024968e+00 2.9536311115091500e+01 0 0 0
323 1 3.2582420481797674e+00 -1.1223773258631412e-01 2.7899324108273213e+01 0 0 0
398 1 2.1827387448243385e+01 1.2537712734410215e+01 2.7568572136604367e+01 0 0 0
348 1 2.1999199872969498e+01 2.7683106372760573e+00 2.5041902777461907e+01 0 0 0
346 1 1.8621693603066703e+01 3.2208058447909198e+00 2.7939263380380957e+01 0 0 0
349 1 2.0128970008134011e+01 1.5045779022180481e+00 2.6714372485523533e+01 0 0 0
400 1 2.2869860857129218e+01 1.4048795447240858e+01 2.9679224870069262e+01 0 0 0
351 1 2.3261348793047048e+01 1.3674193628630629e+00 2.9542523469668431e+01 0 0 0
326 1 1.4772272202605941e+00 4.5924144231541604e+00 2.9651264460566942e+01 0 0 0
355 1 3.2218268202984941e+00 6.3431576792843432e+00 2.8068171863391164e+01 0 0 0
357 1 1.2488265239627854e+00 7.8919697695424187e+00 2.6900170966806549e+01 0 0 0
328 1 4.5219823602520677e+00 4.3276094362536419e+00 2.6508426214139426e+01 0 0 0
359 1 4.3937280012975553e+00 7.7081973455755159e+00 2.9515001592806719e+01 0 0 0
77 1 1.8829108391431859e+01 1.2223309139343213e+01 3.0763787321469557e+01 0 0 -1
334 1 7.3315537106096844e+00 4.4250021755452753e+00 2.9489521983641723e+01 0 0 0
363 1 8.9794912065856760e+00 6.3230777309171149e+00 2.8098198485502699e+01 0 0 0
399 1 2.0503601095097544e+01 1.4484044776356878e+01 2.6413202822610238e+01 0 0 0
336 1 1.0788181247046891e+01 4.8940207581343396e+00 2.6776078482534302e+01 0 0 0
342 1 1.3964592903699343e+01 4.4398663994973617e+00 2.9623907015247937e+01 0 0 0
396 1 1.7271817024461328e+01 1.3987863067275878e+01 2.9180811151281894e+01 0 0 0
344 1 1.7108251899040560e+01 4.9621563522140448e+00 2.6155701563254517e+01 0 0 0
371 1 1.5517968477658512e+01 5.9747694478742446e+00 2.8042665670393276e+01 0 0 0
350 1 2.0273339359426878e+01 4.7620254723237565e+00 2.9341934723148292e+01 0 0 0
394 1 1.5547571485704678e+01 1.2282896124772241e+01 2.7995590715712176e+01 0 0 0
20 1 1.5415327863416103e+01 2.9627238246445775e+00 3.1063277449013654e+01 0 0 -1
379 1 2.1677798656914248e+01 6.1680701700789831e+00 2.7792955381794172e+01 0 0 0
352 1 2.3342719152152824e+01 4.4411379878037698e+00 2.6606714766146148e+01 0 0 0
358 1 1.4167629766470557e+00 1.0820686085254412e+01 2.9582317938790183e+01 0 0 0
44 1 9.0494446402422497e+00 9.3932313035473634e+00 3.1058324103092716e+01 0 0 -1
360 1 4.1807211834210145e+00 1.0888453074073254e+01 2.6780385630271816e+01 0 0 0
362 1 6.0185841210386553e+00 9.4795854147379544e+00 2.8194715481747266e+01 0 0 0
365 1 7.1722737189196382e+00 7.7626503724780545e+00 2.6380973048334013e+01 0 0 0
366 1 7.7945781521827859e+00 1.1110344313884084e+01 2.9429329829667758e+01 0 0 0
367 1 1.0715338196383165e+01 8.0456410285423861e+00 2.9582580390657675e+01 0 0 0
395 1 1.4142271856445129e+01 1.3963072314070518e+01 2.6394083508909262e+01 0 0 0
373 1 1.4299269821387499e+01 7.8124424357130682e+00 2.6613088941346312e+01 0 0 0
368 1 1.0589459638341927e+01 1.0836531100536240e+01 2.6583325266629210e+01 0 0 0