LAMMPS data file via write_data, version 12 Dec 2018, timestep = 50000

1526 atoms
1 atom types

2.5500843577002996e-02 4.9652829345307168e+01 xlo xhi
1.6050600715477259e-02 3.1252210767265190e+01 ylo yhi
1.6050600715477259e-02 3.1252210767265190e+01 zlo zhi

Masses

1 18.015

Atoms # atomic

211 1 1.5103247209245441e+00 3.1027076972078866e+01 1.8233926215161032e+00 0 -1 1
671 1 8.2233522504177869e-02 1.8084740837170983e+01 1.2152355294534898e+01 1 -4 0
212 1 3.2531332478191395e+00 1.5398626812023157e+00 2.4192528817384493e-01 0 0 1
33 1 5.8865027236290057e+00 1.3732343492217500e+00 3.4115678266208889e+00 0 0 0
216 1 7.3586409342170089e+00 3.0859836596331625e+01 1.6618161956467081e+00 0 -1 1
217 1 9.0048865940883225e+00 1.5198033476835291e+00 2.7192108379786240e-01 0 0 1
231 1 3.0959908259142126e+00 4.6520216428544163e+00 3.2597814130739935e+00 0 0 0
218 1 1.4499225522323083e+00 6.0127942840573763e+00 1.7545168828939401e+00 0 0 1
215 1 4.4238313099296169e+00 2.9035009451970990e+00 1.6872696464634409e+00 0 0 1
221 1 6.0470192897961930e+00 4.6730704391419602e+00 3.6833899197707159e-01 0 0 1
219 1 9.0747682108555079e+00 4.5868049824080250e+00 3.2290077224188218e+00 0 0 0
223 1 7.8211900170649766e+00 6.3021551383928687e+00 1.6016858372568183e+00 0 0 1
137 1 6.0731082972749668e+00 1.3978533705495764e+01 1.5628880371342976e+01 0 0 0
225 1 2.8719307412268122e+00 7.8788556931199851e+00 2.6601900225272013e-01 0 0 1
232 1 6.0893606038461332e+00 7.5754649890321160e+00 3.2341565682595244e+00 0 0 0
228 1 4.3979551198667783e+00 9.1166608506553057e+00 1.9500698720334479e+00 0 0 1
108 1 2.9501299298394397e+00 1.0932012763059518e+01 3.3480967408916218e+00 0 0 0
291 1 1.2265076087160345e+00 1.2618663466855255e+01 2.2124615046728553e+00 0 0 1
296 1 5.8773944503105202e+00 1.0750978840357245e+01 5.9388623761442461e-01 0 0 1
318 1 9.6522902093962610e+00 1.0910530568606418e+01 3.1826642298357473e+00 0 0 0
294 1 7.7979579899884159e+00 1.2397769173403253e+01 1.8672197765286371e+00 0 0 1
302 1 6.3397583989047046e+00 1.6503409949391695e+01 3.3704107073437778e-01 0 0 1
102 1 6.1568235772578896e+00 1.3672892072665629e+01 3.7199296428187560e+00 0 0 0
301 1 4.4481750726196756e+00 1.4994710665688553e+01 1.7422318593060220e+00 0 0 1
323 1 9.4128179952628450e+00 1.6663755209523586e+01 3.1839008130152240e+00 0 0 0
295 1 9.2467916033574209e+00 1.4053638931065594e+01 2.5753242430519485e-01 0 0 1
88 1 3.1960814412409486e+00 1.6791793182374924e+01 3.3558005642756186e+00 0 0 0
307 1 1.8217272852350197e+00 1.8823541997839150e+01 2.0369011095465286e+00 0 0 1
306 1 8.1722475854503721e-02 1.7290873580355715e+01 2.5855781331911126e-01 0 0 1
321 1 6.4470431137675490e+00 2.0027229465747993e+01 3.1724122707128024e+00 0 0 0
305 1 7.7752136741950926e+00 1.8355443452089652e+01 1.6069720849885045e+00 0 0 1
319 1 3.2962994656949309e+00 2.3088660941417807e+01 2.9527959963531658e+00 0 0 0
311 1 4.7315169153606531e+00 2.1613496406552017e+01 1.4521899934275486e+00 0 0 1
322 1 9.1090519552700044e+00 2.3085150957520170e+01 3.1532079921134355e+00 0 0 0
315 1 1.6483754583672197e+00 2.4783418518002208e+01 1.5920471812270707e+00 0 0 1
60 1 3.4941158213924028e+00 4.0718474549604267e+00 1.5623759045581959e+01 0 0 0
320 1 6.3215657059437147e+00 2.6171200247007036e+01 2.8773941186845162e+00 0 -1 0
310 1 7.7461402168700637e+00 2.4502034422073084e+01 1.4399032897547686e+00 0 0 1
34 1 3.2987309719119837e+00 2.9383792421014764e+01 3.5786524061640255e+00 0 -1 0
207 1 4.9393623165657319e+00 2.7950368551231055e+01 1.7686540393613621e+00 0 -1 1
226 1 9.4119196058703238e+00 2.9325896336869139e+01 3.2228783980711060e+00 0 -1 0
11 1 1.5856698904181117e+00 2.8657266357506748e+00 4.8991996330860985e+00 0 0 0
10 1 2.7772696822539671e+00 1.2719596821218475e+00 6.6797490195609814e+00 0 0 0
13 1 4.4535591873507636e+00 3.1140865583819856e+01 5.1470481216746737e+00 0 -1 0
15 1 7.7547402245024655e+00 3.1074836194068830e+01 7.5760996804980021e+00 0 -1 0
16 1 9.1645832850371445e+00 1.6664249640230737e+00 6.3574945469084705e+00 0 0 0
17 1 1.3336147811863690e+00 5.7573146717340000e+00 7.7588662033673250e+00 0 0 0
210 1 3.2895110904248583e+00 2.6327254793443039e+01 7.3250878664426616e-02 0 -1 1
19 1 4.5751540559618862e+00 6.3233536265803973e+00 4.9206642760925243e+00 0 0 0
18 1 4.5110431848031887e+00 3.1176242894984911e+00 7.6350721747216088e+00 0 0 0
20 1 6.1166130666722651e+00 4.7132609820519740e+00 6.2637048726713092e+00 0 0 0
21 1 7.3952000607432433e+00 3.1833463435016420e+00 4.8163656747096910e+00 0 0 0
22 1 7.5617525666706049e+00 6.1517568594191578e+00 7.9957540467690178e+00 0 0 0
25 1 1.6962894974011018e+00 9.5420249940243771e+00 4.8405885271594498e+00 0 0 0
26 1 2.6883968483461333e+00 7.5998440740906759e+00 6.3586221565099406e+00 0 0 0
12 1 4.6648634585672397e+00 8.9938671611440686e+00 7.7024411979493035e+00 0 0 0
23 1 7.8007547273756082e+00 9.2598917156532305e+00 4.2922317189036265e+00 0 0 0
24 1 8.9631666517457571e+00 7.7468956790489800e+00 6.3977406620561519e+00 0 0 0
84 1 1.0837952314176535e-01 1.0777324922510395e+01 6.5106709378996062e+00 0 0 0
85 1 4.5270242399186644e+00 1.2210172590897431e+01 5.1181636668233335e+00 0 0 0
7 1 6.3155192105899944e+00 1.0628374351702798e+01 6.3504857109628698e+00 0 0 0
86 1 7.6278360455139573e+00 1.2316511084247193e+01 7.7723652893057391e+00 0 0 0
89 1 1.4658944014751978e+00 1.5504560054331268e+01 5.1571502140188503e+00 0 0 0
82 1 3.0431319018061953e+00 1.3890301013911989e+01 6.5716926052934257e+00 0 0 0
95 1 7.5990317022779061e+00 1.5529668654530051e+01 5.0028424585153513e+00 0 0 0
87 1 9.2636892200674605e+00 1.3768252158404250e+01 6.2667211237316192e+00 0 0 0
987 1 2.7948234522504345e-01 3.0363497502523330e+01 5.1644229403311330e+00 0 -1 -2
97 1 3.1584231684078286e+00 1.9813650725881601e+01 6.6060124782746934e+00 0 0 0
94 1 4.6915002620595470e+00 1.8670053562849169e+01 4.5322019663996027e+00 0 0 0
93 1 6.0382368076527211e+00 1.7285744469593215e+01 6.4505327324603909e+00 0 0 0
100 1 9.4796647623970109e+00 1.9611774152588037e+01 6.6130595132527690e+00 0 0 0
96 1 1.7130245205226995e+00 2.1576173383451444e+01 4.5662889694514055e+00 0 0 0
104 1 2.3444234516736437e-01 2.2967371759598453e+01 6.4631960760548530e+00 0 0 0
106 1 6.2691644565479798e+00 2.3338109648880909e+01 6.5247148598556137e+00 0 0 0
101 1 7.9890239585357383e+00 2.1250656093939824e+01 4.9210510136753287e+00 0 0 0
105 1 1.5644169470428229e+00 2.4737799109222770e+01 7.9301611236376761e+00 0 0 0
2 1 3.0196054796658349e+00 2.6618294976531015e+01 6.2874836880568781e+00 0 -1 0
107 1 4.6118697994966311e+00 2.4926708366633104e+01 4.6402660726181519e+00 0 0 0
103 1 7.7204743908398807e+00 2.4905385127920990e+01 7.7848863601790139e+00 0 0 0
83 1 9.3095011753855026e+00 2.6254445768490978e+01 6.4911246638083053e+00 0 -1 0
1 1 1.3304838949492825e+00 2.8031567299667721e+01 4.8480713912866769e+00 0 -1 0
4 1 6.4031941072641905e+00 2.9672881535273021e+01 6.0925797359048079e+00 0 -1 0
3 1 4.8379792704562261e+00 2.8193835831572780e+01 7.9478526161011365e+00 0 -1 0
6 1 7.8010743554819273e+00 2.7709911192395765e+01 4.5925367048702865e+00 0 -1 0
9 1 1.1948505847118083e+00 3.0868066316616183e+01 8.0738106701667487e+00 0 -1 0
43 1 1.4860724357568105e+00 2.5074506810921831e+00 1.0998492557325005e+01 0 0 0
30 1 6.1077039020460120e+00 1.2081920643215829e+00 9.4291009996270763e+00 0 0 0
44 1 4.8442233818340235e+00 3.0837975665461318e+01 1.0950945482214520e+01 0 -1 0
53 1 7.8286123794010134e+00 2.5365055607759914e+00 1.0990231746047195e+01 0 0 0
8 1 3.1719383613777032e+00 4.2361227454753632e+00 9.3314575700166777e+00 0 0 0
51 1 4.5973391120138274e+00 5.6003442142602475e+00 1.0965890854433882e+01 0 0 0
14 1 9.3850721017966965e+00 4.3740277742628448e+00 9.4127868358464024e+00 0 0 0
27 1 1.6399279806773664e-01 7.6790795086515571e+00 9.5276252538735946e+00 0 0 0
57 1 1.3820664941119363e+00 8.9323461460915343e+00 1.1179991562321890e+01 0 0 0
59 1 5.7711832109425245e+00 7.6404640251359526e+00 9.9174280973148079e+00 0 0 0
48 1 7.7842884419181644e+00 8.9684351151243469e+00 1.1430944710042791e+01 0 0 0
81 1 1.7418758555441893e+00 1.2313694140963321e+01 8.4167691896072139e+00 0 0 0
66 1 3.1344660530530573e+00 1.0353358698843259e+01 9.6655587382675598e+00 0 0 0
112 1 5.1731221227526314e+00 1.1835091028463607e+01 1.0862734524654762e+01 0 0 0
28 1 9.1273316323243332e+00 1.0502141714178297e+01 9.1504936168685322e+00 0 0 0
113 1 4.7559475084423777e-02 1.3931306065716786e+01 1.0246183918435053e+01 0 0 0
117 1 1.3941530688161548e+00 1.5434696914532873e+01 1.1718969343358101e+01 0 0 0
92 1 4.4070403698596419e+00 1.5530682913009560e+01 8.2735684981265347e+00 0 0 0
141 1 6.4120447940320959e+00 1.3862173902691520e+01 9.7172794640794020e+00 0 0 0
122 1 9.3099552244734554e+00 1.6588289942382623e+01 9.8872682049823712e+00 0 0 0
120 1 7.5318761140299753e+00 1.5464881507477605e+01 1.1639946134040835e+01 0 0 0
90 1 1.6452803333796593e+00 1.8504866006649589e+01 8.3591867720547661e+00 0 0 0
136 1 3.2426197217217192e+00 1.6987646796890527e+01 1.0020272556033818e+01 0 0 0
943 1 2.0043131141346740e-01 1.9284254479933146e+01 4.2953319215519903e+00 1 0 2
126 1 4.8900364242399936e+00 1.8711497249746937e+01 1.1280842261973008e+01 0 0 0
99 1 7.9207702077113415e+00 1.8220733487462706e+01 8.1269549520491413e+00 0 0 0
135 1 6.8665392279606845e+00 2.0032336775890911e+01 9.6579846825793947e+00 0 0 0
109 1 3.1441071197387154e+00 2.2883292831239995e+01 9.4246020038663971e+00 0 0 0
124 1 1.4347702529606916e+00 2.1459391058901943e+01 1.1469870458550094e+01 0 0 0
98 1 4.9542898569953913e+00 2.1367764332551435e+01 8.0484318193436462e+00 0 0 0
138 1 9.4050135357269227e+00 2.3652404638125802e+01 9.6296117294647150e+00 0 0 0
130 1 8.2872756554479192e+00 2.1910601141577679e+01 1.1178008626222717e+01 0 0 0
140 1 9.4421298878010290e-02 2.6268864372340623e+01 9.8721428050411326e+00 0 -1 0
32 1 6.3573039829192943e+00 2.6485817235912762e+01 9.3842462351586082e+00 0 -1 0
132 1 4.6990238405150295e+00 2.4617302298993074e+01 1.0972426315248319e+01 0 0 0
31 1 2.9438811298034464e+00 2.9508473085239928e+01 9.2890674118571805e+00 0 -1 0
35 1 1.6280132521156734e+00 2.8029834053727829e+01 1.1403004799514070e+01 0 -1 0
29 1 9.4798558054235986e+00 2.9383053296561421e+01 9.2865438498266499e+00 0 -1 0
38 1 7.9242183349322435e+00 2.7782573491291817e+01 1.1325192736939462e+01 0 -1 0
42 1 3.1920494872223735e+00 1.0173303697740750e+00 1.2546300533965992e+01 0 0 0
41 1 1.6582795075055916e+00 3.0976290138920604e+01 1.4478789061224589e+01 0 -1 0
50 1 4.7876263730213955e+00 2.2841633216576125e+00 1.3951386084550693e+01 0 0 0
47 1 9.1439214051861111e+00 1.2199630369127863e+00 1.2471927003432391e+01 0 0 0
46 1 8.0485814413089489e+00 3.0397631135740497e+01 1.4296783540888258e+01 0 -1 0
49 1 1.5427563097394428e+00 5.5856449394343732e+00 1.4385821165312622e+01 0 0 0
52 1 6.2689996691632954e+00 4.1008202188053362e+00 1.2397919235575406e+01 0 0 0
313 1 9.2739818663161238e+00 1.9966772931754591e+01 8.4861630771046123e-02 0 0 1
297 1 9.3595433747416674e+00 2.5994576845333174e+01 1.7963276202274595e-01 0 -1 1
54 1 7.6817931148047958e+00 5.6110952183081286e+00 1.4076865957818878e+01 0 0 0
56 1 2.9801409229553895e+00 7.1066500028528097e+00 1.2677556075920617e+01 0 0 0
314 1 3.1732880109668271e-01 2.3348337107139375e+01 6.7138274571216100e-02 0 0 1
58 1 4.5432647914177196e+00 8.7544557638486857e+00 1.3943653751071039e+01 0 0 0
45 1 9.5480192870409315e+00 7.0297257477236439e+00 1.2670341428783134e+01 0 0 0
317 1 6.2725487320323765e+00 2.3162746423773175e+01 9.6204230536651281e-02 0 0 1
110 1 1.2270856420310479e+00 1.2194516059274930e+01 1.4268877703225096e+01 0 0 0
37 1 6.1910682520263078e+00 2.9604381010268305e+01 1.2789247655272298e+01 0 -1 0
39 1 6.1684789885546154e+00 1.0499673400250884e+01 1.2834121991760950e+01 0 0 0
309 1 3.6346588723144051e+00 1.9724707527751445e+01 6.4493265909054881e-02 0 0 1
115 1 7.5388452505933534e+00 1.2348126162738001e+01 1.4180890100243484e+01 0 0 0
111 1 3.1103219602014387e+00 1.3498614127011141e+01 1.2841708339934611e+01 0 0 0
292 1 2.6689916269960317e+00 1.3571328841523851e+01 2.0454464758801968e-01 0 0 1
118 1 4.2810064988723262e+00 1.5375020923237528e+01 1.4335508929415518e+01 0 0 0
116 1 9.1800856105329647e+00 1.3755649447738943e+01 1.2701682634173299e+01 0 0 0
125 1 3.2228042618178123e+00 2.0207257987195732e+01 1.3004972020095606e+01 0 0 0
227 1 9.1830388906425231e+00 7.9358638935679702e+00 2.1500032991584095e-01 0 0 1
123 1 1.5195689261373833e+00 1.8781991759692843e+01 1.4505936945249985e+01 0 0 0
119 1 5.9293671846221132e+00 1.6776111016658618e+01 1.3047749087137484e+01 0 0 0
129 1 9.2680715918548717e+00 2.0045235730382185e+01 1.2859385334736340e+01 0 0 0
36 1 5.2919285629839354e+00 2.7636429989769763e+01 1.4057291649075246e+01 0 -1 0
121 1 7.7341011008935281e+00 1.8646768578589622e+01 1.4206946666144038e+01 0 0 0
133 1 6.4104476830475940e+00 2.3366514054270354e+01 1.2805544239798103e+01 0 0 0
127 1 4.8277783957535334e+00 2.2022471849840343e+01 1.4387004194697170e+01 0 0 0
128 1 3.1202131555411539e+00 2.6213667231489989e+01 1.2633392523528659e+01 0 -1 0
131 1 1.1806788895513649e+00 2.4692279262346979e+01 1.4280962682961247e+01 0 0 0
114 1 9.6915668345668191e+00 2.6099193325460107e+01 1.2783988267242123e+01 0 -1 0
134 1 8.1523995171798127e+00 2.4728957922179493e+01 1.4309825221812970e+01 0 0 0
642 1 1.5456786599242769e-01 2.9986392089835878e+01 1.2848092144787392e+01 1 -1 -5
1515 1 2.6523091475271232e-01 3.2941922637420595e-01 1.0187639241040369e+01 0 1 3
809 1 3.9419695312616909e-02 5.9285976011497921e+00 5.4060355338486730e+00 2 1 -1
158 1 2.7297460521792671e+00 1.4796266626802153e+00 1.9015353226398883e+01 0 0 0
71 1 8.8245365858645985e-01 2.7752259596003777e+00 1.7092106647130940e+01 0 0 0
72 1 4.3358742395261167e+00 3.0934036699061451e+01 1.7365667476462466e+01 0 -1 0
80 1 5.9905504316592637e+00 1.0034266179164968e+00 1.5913112261649188e+01 0 0 0
160 1 9.2527762373675184e+00 1.4494077579627649e+00 1.9005408587515408e+01 0 0 0
73 1 7.4061089452393194e+00 2.6426455760852199e+00 1.7709677656449880e+01 0 0 0
163 1 5.7970902007482819e+00 4.6436982476390876e+00 1.9217145782960991e+01 0 0 0
75 1 4.7326412404349467e+00 5.9455134650916808e+00 1.7247632226168434e+01 0 0 0
167 1 2.8161228514921617e+00 6.9757712013268129e+00 1.9015658218823930e+01 0 0 0
77 1 1.5620592974383154e+00 9.0428297013450862e+00 1.7422877337625341e+01 0 0 0
79 1 4.1732117350162118e-01 7.1969074772330996e+00 1.5883772357913490e+01 0 0 0
70 1 9.0692681479082484e+00 7.5026626526081479e+00 1.8652725908241102e+01 0 0 0
76 1 7.4851781498561669e+00 9.0109770582552002e+00 1.7266067009504319e+01 0 0 0
145 1 3.1043186609963782e+00 1.7113295595351005e+01 1.5830810619145076e+01 0 0 0
168 1 6.2321036211878420e+00 1.0398869504880141e+01 1.9089897683688999e+01 0 0 0
143 1 4.9091180425808352e+00 1.1668720983063739e+01 1.6978573996079561e+01 0 0 0
142 1 3.2602020028127865e+00 1.3413407106356461e+01 1.8810635009790357e+01 0 0 0
146 1 1.6625977606258220e+00 1.5281514902320923e+01 1.7574640323160313e+01 0 0 0
239 1 9.0937431215638735e+00 1.3978494540509343e+01 1.8966596495893175e+01 0 0 0
148 1 7.4836734005915764e+00 1.5559554522141408e+01 1.7534010634336301e+01 0 0 0
1490 1 8.5301435402548476e-02 1.3280172009574146e+01 1.6284960870627589e+01 2 -1 -1
147 1 5.7675739002311364e+00 1.6888568194358076e+01 1.8873122512694216e+01 0 0 0
152 1 4.3524362010396205e+00 1.8929986418173304e+01 1.7378205278661905e+01 0 0 0
154 1 6.1625223261429447e+00 2.0071684955947010e+01 1.6027213790583293e+01 0 0 0
248 1 8.9312294057888355e+00 1.9917255380947505e+01 1.9409783280539166e+01 0 0 0
245 1 2.9131117800371800e+00 2.0445880006396681e+01 1.9263062972158767e+01 0 0 0
150 1 1.2663230836647694e+00 2.2009540361804433e+01 1.7446794812411479e+01 0 0 0
155 1 2.8897032858907781e+00 2.3476784437448988e+01 1.5968760158173371e+01 0 0 0
243 1 5.9409260956105481e+00 2.2962228981645932e+01 1.9261782399547425e+01 0 0 0
153 1 7.7349894050683901e+00 2.1666411588079061e+01 1.7721974333413982e+01 0 0 0
149 1 9.4116288741265066e+00 2.3270446855457770e+01 1.6293742293190181e+01 0 0 0
247 1 3.1272672235686860e+00 2.6143176966313323e+01 1.8978318149775550e+01 0 -1 0
74 1 7.0255783733791252e-02 2.6476347632806235e+01 1.5927769335182964e+01 0 -1 0
151 1 4.6509711103178955e+00 2.4742792505561990e+01 1.7378621020173856e+01 0 0 0
78 1 6.4557346360647188e+00 2.6478266450906119e+01 1.6072165651256061e+01 0 -1 0
165 1 9.3970419084034340e+00 2.6595306163145391e+01 1.9618505818625405e+01 0 -1 0
67 1 1.6112480621842986e+00 2.7963168012824596e+01 1.7500736179880469e+01 0 -1 0
209 1 7.7613658855090897e+00 2.7736994582129341e+01 2.9732230236691358e+01 0 -1 0
68 1 6.4780852556505142e+00 2.9456746142766271e+01 1.8812514835401668e+01 0 -1 0
69 1 8.1527616570405907e+00 2.7691199425727902e+01 1.7724291060273771e+01 0 -1 0
157 1 1.2845160182915694e+00 3.0907380961952850e+01 2.0512066265077905e+01 0 -1 0
235 1 9.4826628800384931e+00 2.9815773022837909e+01 2.8719308477637988e+01 0 -1 0
162 1 4.4592208351849614e+00 2.7463167004162874e+00 2.0483205492717904e+01 0 0 0
184 1 4.2090115024497328e+00 3.1206139806449020e+01 2.3621980515678494e+01 0 -1 0
186 1 6.0427502907444328e+00 1.4040285814274815e+00 2.2195524706075112e+01 0 0 0
159 1 7.6749770856803945e+00 3.0980191917732803e+01 2.0524605223469734e+01 0 -1 0
161 1 1.2410992307946063e+00 5.7027130707105487e+00 2.0550888865917482e+01 0 0 0
169 1 2.6477696137233826e+00 4.0954267067127850e+00 2.2055162418498831e+01 0 0 0
164 1 7.4302639153649634e+00 6.2470887136239268e+00 2.0587529274351734e+01 0 0 0
193 1 7.4973887631568816e+00 3.2159261749142463e+00 2.3625610323012463e+01 0 0 0
204 1 9.2190647850513745e+00 4.5528242086367774e+00 2.2066410944193219e+01 0 0 0
196 1 1.4333653224988634e+00 9.1045505434403786e+00 2.3530992203315524e+01 0 0 0
63 1 8.8741829530244605e+00 4.3111516003595325e+00 1.5766663629450502e+01 0 0 0
166 1 4.6369912500060897e+00 8.8458224201760220e+00 2.0462709807748894e+01 0 0 0
174 1 6.0104101516968553e+00 7.4190485669483932e+00 2.2320691295650324e+01 0 0 0
237 1 1.8471201995770972e+00 1.2101175842659805e+01 2.0464262761042008e+01 0 0 0
172 1 3.0652527830429017e+00 1.0497345940397532e+01 2.2020810883489236e+01 0 0 0
238 1 7.7743363465478037e+00 1.2057398042454645e+01 2.0639746277838125e+01 0 0 0
199 1 9.2860735451290370e+00 1.0464559890238339e+01 2.2077507827459648e+01 0 0 0
263 1 1.3565291383552509e+00 1.5625127193826312e+01 2.3436008615003551e+01 0 0 0
1448 1 5.5319480554019695e-01 1.0986946677927683e+01 1.8550654836348258e+01 -1 0 0
241 1 4.5345573037024574e+00 1.5290107977310605e+01 2.0622637575287190e+01 0 0 0
282 1 5.8439430467667908e+00 1.3809752843353152e+01 2.2235558316302402e+01 0 0 0
261 1 9.3529172101994273e+00 1.6475727312237943e+01 2.2283935459801366e+01 0 0 0
240 1 1.4083500973456011e+00 1.8640535553063053e+01 2.0637394290586684e+01 0 0 0
251 1 3.2463702790450197e+00 1.7028959740735498e+01 2.1944517828568138e+01 0 0 0
61 1 3.3892074482669710e+00 2.9103813714204016e+01 1.5691118297465710e+01 0 -1 0
283 1 5.9360455914561552e+00 1.9848996354318839e+01 2.2468119855616646e+01 0 0 0
242 1 7.2744839072845089e+00 1.8307962951492311e+01 2.1020090425553132e+01 0 0 0
256 1 3.0212802456699408e+00 2.3589946959905244e+01 2.2404511943461188e+01 0 0 0
246 1 4.3213646254618547e+00 2.1639407477174348e+01 2.1020546890758780e+01 0 0 0
253 1 9.3295934500326823e+00 2.2998037204567591e+01 2.1973175690013520e+01 0 0 0
249 1 1.3096395800850222e+00 2.4590799704310967e+01 2.0608014449415219e+01 0 0 0
171 1 6.0814689443369270e+00 2.6445776145200362e+01 2.2033235291145399e+01 0 -1 0
250 1 7.6279566542789494e+00 2.4727477822651814e+01 2.0697815694167009e+01 0 0 0
170 1 3.0472347344347224e+00 2.9221679725132628e+01 2.2002183881346738e+01 0 -1 0
156 1 4.8464246183041748e+00 2.8077527687228962e+01 2.0310395620789794e+01 0 -1 0
201 1 9.4609542627464549e+00 2.9848410588587971e+01 2.2099134322433617e+01 0 -1 0
177 1 7.9427984430762475e+00 2.8038483312359016e+01 2.3524960413672236e+01 0 -1 0
182 1 1.1573887275503325e+00 2.6275578068798655e+00 2.3748267828103792e+01 0 0 0
181 1 2.8569670897513633e+00 1.3222488933473757e+00 2.5328487721748370e+01 0 0 0
180 1 1.4547112447919455e+00 4.4253125273043578e-02 2.6846446836898856e+01 0 0 0
190 1 4.6595733096448386e+00 2.8891056820225907e+00 2.6961573477415580e+01 0 0 0
188 1 9.1857364936060275e+00 2.0707676846724481e+00 2.5075366208945823e+01 0 0 0
187 1 7.9850699908048428e+00 1.5215682090484439e-01 2.6683643397567394e+01 0 0 0
189 1 1.1618350406861435e+00 5.9212188201872626e+00 2.6460158285041381e+01 0 0 0
191 1 4.0893796380195511e+00 5.8246009169629502e+00 2.3706514167947166e+01 0 0 0
192 1 5.9292035783168080e+00 4.6073822873507897e+00 2.5449940142732277e+01 0 0 0
194 1 7.5320635935328353e+00 6.0741014205109272e+00 2.6553977157627664e+01 0 0 0
195 1 2.6292244809922831e+00 7.5642475567519005e+00 2.5191267165472460e+01 0 0 0
197 1 4.3247336655308271e+00 9.0231175263049632e+00 2.6701003330600816e+01 0 0 0
179 1 7.6661920703551010e+00 8.9432034486357672e+00 2.3775862832936507e+01 0 0 0
183 1 9.4846674060502725e+00 7.7113901119561090e+00 2.5397826058726316e+01 0 0 0
260 1 1.1141968879370118e-01 1.0719528121545542e+01 2.4996491442301494e+01 0 0 0
254 1 1.3551661079699533e+00 1.2532074335045005e+01 2.6547425712061390e+01 0 0 0
257 1 4.5583423184367877e+00 1.2097654432896645e+01 2.3802896337947878e+01 0 0 0
281 1 5.9642348197565855e+00 1.0812506768532129e+01 2.5378181355248479e+01 0 0 0
258 1 7.7942502143001553e+00 1.2595917377850355e+01 2.6749868042571656e+01 0 0 0
255 1 2.8606343662728770e+00 1.3940431716120967e+01 2.4776398272822668e+01 0 0 0
267 1 5.8743318634661854e+00 1.6564671345221520e+01 2.5395543410778686e+01 0 0 0
266 1 4.0417467989997977e+00 1.5366817106637175e+01 2.6688976957445465e+01 0 0 0
269 1 7.5542709538994641e+00 1.5180219613348834e+01 2.3994612000549051e+01 0 0 0
259 1 9.5407301812183007e+00 1.3656125666815804e+01 2.5118416175540805e+01 0 0 0
265 1 1.9838115992125036e-01 1.7290390386932714e+01 2.5113084009553177e+01 0 0 0
264 1 1.7969438040614392e+00 1.8798067004462283e+01 2.6452620594860985e+01 0 0 0
268 1 4.1802436603162034e+00 1.8056799050034780e+01 2.3876195021134077e+01 0 0 0
65 1 9.8060100873366363e+00 2.8984919175967072e+01 1.5783735981750288e+01 0 -1 0
270 1 7.5878320113802467e+00 1.8092531558113141e+01 2.6565798102332646e+01 0 0 0
271 1 1.6306641895946687e+00 2.1821897899309221e+01 2.3660696780746882e+01 0 0 0
272 1 3.1459581914109260e+00 2.0339874508974994e+01 2.4947576702487044e+01 0 0 0
205 1 1.7801671699295922e+00 2.8086100252397230e+01 3.0037510444804447e+01 0 -1 0
280 1 6.4517690982559399e+00 2.2663310547429493e+01 2.5024372580296937e+01 0 0 0
274 1 4.8905006374723925e+00 2.1484102722427014e+01 2.6634642254992094e+01 0 0 0
276 1 8.1230736860472295e+00 2.1060054966096427e+01 2.3659636644245481e+01 0 0 0
279 1 1.7962569911072324e+00 2.4848510439594722e+01 2.6761808664561492e+01 0 0 0
273 1 4.8261712988363037e+00 2.4822472484864782e+01 2.3812137053157290e+01 0 0 0
185 1 3.4779861697964689e+00 2.6401799316919998e+01 2.5358162254125265e+01 0 -1 0
198 1 9.4806354820552254e+00 2.6467439631101328e+01 2.5099594397199091e+01 0 -1 0
278 1 7.8842040938401867e+00 2.4647374282882293e+01 2.6283375165121605e+01 0 0 0
173 1 1.7741866889186786e+00 2.7749301173072251e+01 2.3871828122664617e+01 0 -1 0
178 1 4.0171927020054315e-01 2.9124006837210384e+01 2.5442320154527138e+01 0 -1 0
176 1 6.2529369492486060e+00 2.9735147518924880e+01 2.4813043190209264e+01 0 -1 0
175 1 4.7909750346247524e+00 2.8042512508783496e+01 2.6714684256040709e+01 0 -1 0
214 1 4.5519539980194361e+00 3.0762543844177017e+01 2.9919941100429604e+01 0 -1 0
200 1 6.1626223664243769e+00 1.1607007477631086e+00 2.8031387226438049e+01 0 0 0
236 1 2.9954955458876533e+00 4.5893027686799446e+00 2.8414785934743811e+01 0 0 0
213 1 1.2821585095785559e+00 3.0870847013153551e+00 3.0311283672845796e+01 0 0 0
220 1 4.2110431730562858e+00 6.0804917006750925e+00 3.0191621312550680e+01 0 0 0
234 1 8.9301815012477181e+00 4.7215365935991498e+00 2.8548084705462280e+01 0 0 0
222 1 7.1995244655010522e+00 2.9578980685246044e+00 2.9792618782952875e+01 0 0 0
224 1 1.2415975636153587e+00 9.0222193620887676e+00 2.9838643247889639e+01 0 0 0
233 1 5.9223531914206626e+00 7.6003193167327829e+00 2.8796713472519919e+01 0 0 0
208 1 6.1684916704709929e+00 2.9237126260074987e+01 3.1088392319068159e+01 0 -1 0
229 1 7.5067097342555558e+00 9.5933612033682731e+00 2.9912798826175326e+01 0 0 0
286 1 2.4871415516716993e+00 1.0743987347491011e+01 2.8240504147961239e+01 0 0 0
293 1 4.3021250873158632e+00 1.2147358075940049e+01 2.9802286722292884e+01 0 0 0
299 1 9.2479416760715658e+00 1.1166501690459500e+01 2.8331352743844665e+01 0 0 0
144 1 9.2337776314104527e+00 1.6959456062046279e+01 1.5835053395853290e+01 0 0 0
300 1 1.3216857081205349e+00 1.5351636936902828e+01 2.9970638811275307e+01 0 0 0
284 1 5.7085023259107741e+00 1.3904031160489584e+01 2.8145822435153924e+01 0 0 0
304 1 7.7875242474520876e+00 1.5162901838576762e+01 2.9572119313738874e+01 0 0 0
298 1 2.7620779932148078e+00 1.7158545705518023e+01 2.8516883146336259e+01 0 0 0
290 1 3.5197965810262327e-01 2.0100939508343455e+01 2.8186146929035349e+01 0 0 0
324 1 6.2811766863636409e+00 1.9919953525510945e+01 2.8473469138928706e+01 0 0 0
303 1 4.8744613928326945e+00 1.8062314812948756e+01 2.9826079354645842e+01 0 0 0
64 1 3.1250697440667761e+00 1.0636459232975467e+01 1.5652168590110302e+01 0 0 0
262 1 9.4664535169632256e+00 1.7117558224309082e+01 2.8223217049515736e+01 0 0 0
202 1 2.9827600538000509e+00 2.9521865138206767e+01 2.8148952013024577e+01 0 -1 0
308 1 1.8347287332713249e+00 2.1569111184020333e+01 3.0071122706868934e+01 0 0 0
40 1 9.2721453866246737e+00 1.0282328362027405e+01 1.5667408116360610e+01 0 0 0
325 1 3.4002651790528651e+00 2.3019165922997981e+01 2.8587904005201509e+01 0 0 0
275 1 9.8035760297639793e+00 1.9752506956345005e+01 2.5245572132826315e+01 0 0 0
285 1 9.4822995090556201e+00 2.3294237073140668e+01 2.8146963548045182e+01 0 0 0
312 1 7.8592622786472477e+00 2.1871935018050806e+01 2.9810344753246078e+01 0 0 0
289 1 5.4322233888186544e-01 2.6281635482104328e+01 2.8154711721491442e+01 0 -1 0
288 1 6.4193582160111369e+00 2.6173003752494235e+01 2.7980249276093208e+01 0 -1 0
62 1 6.1165125866878736e+00 7.3586983535223878e+00 1.5689740778959630e+01 0 0 0
316 1 5.0107605073774533e+00 2.4803269609766520e+01 2.9939694229107502e+01 0 0 0
548 1 1.2437667810925499e+01 1.3088882523847294e+00 3.3011982613882842e+00 0 0 0
532 1 1.3984870393796470e+01 3.0874685560098808e+01 1.7960632624034478e+00 0 -1 1
524 1 1.8497367927116404e+01 1.1938882051879876e+00 3.1817741697393966e+00 0 0 0
538 1 1.0738951496509166e+01 3.2405981954822822e+00 1.7547790653188144e+00 0 0 1
355 1 1.5534009879401571e+01 4.4839244943787131e+00 3.3949879822626001e+00 0 0 0
543 1 1.3946577038264822e+01 6.1599343770482111e+00 1.7903014142234375e+00 0 0 1
545 1 1.6814236819662259e+01 2.9104607906314253e+00 1.7819502685583590e+00 0 0 1
326 1 1.2447915515174877e+01 7.7910020000277731e+00 3.4412783889805549e+00 0 0 0
544 1 1.1243836462554953e+01 9.2511491294591188e+00 1.6814883379495780e+00 0 0 1
530 1 1.8844391782571009e+01 7.4139773512962970e+00 2.9347733235995106e+00 0 0 0
533 1 1.7288699190897564e+01 9.1767197202035380e+00 1.3534222977174104e+00 0 0 1
549 1 1.6133734789564492e+01 1.0584190550787426e+01 3.1952183887032128e+00 0 0 0
601 1 1.4652279564715192e+01 1.2118716566619486e+01 1.8958788733060232e+00 0 0 1
624 1 1.2690745707307308e+01 1.3706855452024561e+01 2.9338827371810994e+00 0 0 0
608 1 1.0873450811665260e+01 1.5167995651140837e+01 1.6797908817905474e+00 0 0 1
400 1 1.5849687022919984e+01 1.6600782643149106e+01 3.3246597010010523e+00 0 0 0
604 1 1.5896390530663522e+01 1.3968346477860726e+01 2.9736237296978502e-01 0 0 1
623 1 1.8940945461389010e+01 1.4023705704262994e+01 3.2225026151523424e+00 0 0 0
613 1 1.7429343649202455e+01 1.5413868414376495e+01 1.6236006261411626e+00 0 0 1
626 1 1.2242525868948531e+01 1.9752973020678837e+01 3.1333232261291131e+00 0 0 0
610 1 1.4099037197523485e+01 1.8507018312981451e+01 1.7170501783772714e+00 0 0 1
424 1 1.8729449768537314e+01 1.9570946614866948e+01 3.4892499508886528e+00 0 0 0
617 1 1.0910701815021378e+01 2.1640991639359836e+01 1.8448032566919801e+00 0 0 1
607 1 1.2209192761683894e+01 2.3283040704466931e+01 2.3152905410651353e-01 0 0 1
428 1 1.5307740564536482e+01 2.3062545508393892e+01 3.6203701125485015e+00 0 0 0
620 1 1.7263337979836262e+01 2.1258862519282420e+01 1.9828495310921339e+00 0 0 1
598 1 1.2237942980169928e+01 2.5880490535011372e+01 3.0847812949249418e+00 0 -1 0
622 1 1.4195579804414116e+01 2.4602598610714207e+01 1.6138083547900548e+00 0 0 1
431 1 1.8689542398917208e+01 2.6152982003821577e+01 3.3591288081985744e+00 0 -1 0
525 1 1.0904716858670842e+01 2.7658425291757091e+01 1.4581885533568082e+00 0 -1 1
537 1 1.5434115973127625e+01 2.9399059476706142e+01 3.2339559830439057e+00 0 -1 0
528 1 1.7211950099447890e+01 2.7766582989577845e+01 1.7085572915724261e+00 0 -1 1
333 1 1.0722318382421967e+01 3.1231537953902304e+01 4.8901564327462035e+00 0 -1 0
341 1 1.1002461661081076e+01 2.7342322131120618e+00 7.5315452112416219e+00 0 0 0
334 1 1.4058974938463304e+01 3.0938639046202223e+01 7.8423279705053570e+00 0 -1 0
337 1 1.5644065250920928e+01 1.2921401480448149e+00 6.3167243005604394e+00 0 0 0
336 1 1.7178635057102102e+01 3.0753503540947754e+01 4.5033688849038116e+00 0 -1 0
342 1 1.0764811321730155e+01 6.0680113833881748e+00 4.8144904573873522e+00 0 0 0
343 1 1.2240973325099080e+01 4.8159088807361190e+00 6.4990373179676642e+00 0 0 0
335 1 1.3882756978454848e+01 2.9926010924867468e+00 4.8903739305690692e+00 0 0 0
344 1 1.4407081486335276e+01 5.9974388414175825e+00 7.9237972304232303e+00 0 0 0
346 1 1.7216735425169997e+01 6.0659579307423179e+00 4.6763579272090752e+00 0 0 0
338 1 1.7355975739056770e+01 3.1483714528513951e+00 7.6405559254873321e+00 0 0 0
347 1 1.8924197014046655e+01 4.6013549780589855e+00 5.9212650599398131e+00 0 0 0
339 1 1.0808699239355654e+01 9.0164072235281587e+00 7.5535047605349313e+00 0 0 0