LAMMPS (12 Dec 2018)
# GAME PLAN
# fill box with randomly distributed atoms
# pressure should be at 0
# equilibrate at 280K for 1ns
# verify equilibrium by lookig at potential energy
# cut out half the atoms
# fill in void with ice data
# remove overlaps
# hold ice fixed while equilibrating water for 1ns at 280K



variable            NAME string setup_atoms_280K_00
variable            TEMP string 280
variable            PRES string 0
variable            TCOUPL string 5000.0
variable            PCOUPL string 10000.0


## Ice Seed volumetric data:
#
# -9.8304547192656244e-02 2.4916304547192745e+01 xlo xhi
# -1.2288068399043262e-01 3.1145380683989679e+01 ylo yhi
# -1.2288068399043262e-01 3.1145380683989679e+01 zlo zhi
#
variable            ICE_XLO equal -9.8304547192656244e-02
variable            ICE_XHI equal 2.4916304547192745e+01
variable            ICE_LO equal -1.2288068399043262e-01
variable            ICE_HI equal 3.1145380683989679e+01
variable            ICE_WIDTH equal v_ICE_HI-v_ICE_LO
variable            ICE_LEN equal v_ICE_XHI-v_ICE_XLO

## Set Simulation Box Size
#
variable            WIDTH equal v_ICE_WIDTH
variable            LEN equal 2.0*v_ICE_LEN

## Real units, atomic atom style (no bonded interactions)
#
units               real
atom_style          atomic


################################################
#######    Equilibrate Liquid Water    #########
################################################

log                 log.${NAME}.eq_water
log                 log.setup_atoms_280K_00.eq_water
