
# Define the lattice
#
variable	    lattice_constant equal 6.2045
lattice		    diamond ${lattice_constant}
lattice		    diamond 6.2045
Lattice spacing in x,y,z = 6.2045 6.2045 6.2045

# Define region
# multiples of lattice spacing
#
region 		    simbox block 0 4 0 5 0 5

# Create Atoms
#
create_box          1 simbox
Created orthogonal box = (0 0 0) to (24.818 31.0225 31.0225)
  1 by 2 by 5 MPI processor grid
create_atoms        1 box
Created 800 atoms
  Time spent = 0.000442028 secs
mass                1 18.015

# Define potential
#
pair_style          sw
pair_coeff          * * mW_real.sw mW
Reading potential file mW_real.sw with DATE: 2019-02-27

# Add velocity/set timestep
#
velocity            all create ${TEMP} 120598 rot yes dist gaussian
velocity            all create 273 120598 rot yes dist gaussian
timestep            10.0

# Define output
#
compute	            1 all msd
thermo              50
thermo_style        custom step temp press vol etotal ke pe c_1[4]

# Neighbor lists
#
neigh_modify        delay 0 every 1 check yes

# Set fixes
#
fix                 1 all momentum 10 linear 1 1 1 rescale
fix                 2 all nve
fix                 3 all temp/csvr ${TEMP} ${TEMP} 500.0 928347
fix                 3 all temp/csvr 273 ${TEMP} 500.0 928347
fix                 3 all temp/csvr 273 273 500.0 928347
fix                 4 all press/berendsen iso ${PRES} ${PRES} 1000.0 modulus 20000
fix                 4 all press/berendsen iso 0 ${PRES} 1000.0 modulus 20000
fix                 4 all press/berendsen iso 0 0 1000.0 modulus 20000

# Run 1 ns equilibration
#
dump		    1 all atom 1000 eq.${NAME}.dump
dump		    1 all atom 1000 eq.ice_box_273K_00.dump
run	            100000
Neighbor list info ...
  update every 1 steps, delay 0 steps, check yes
  max neighbors/atom: 2000, page size: 100000
  master list distance cutoff = 6.3065
  ghost atom cutoff = 6.3065
  binsize = 3.15325, bins = 8 10 10
  1 neighbor lists, perpetual/occasional/extra = 1 0 0
  (1) pair sw, perpetual
      attributes: full, newton on
      pair build: full/bin/atomonly
      stencil: full/bin/3d
      bin: standard
Per MPI rank memory allocation (min/avg/max) = 4.469 | 4.469 | 4.469 Mbytes
Step Temp Press Volume TotEng KinEng PotEng c_1[4] 
       0          273    1138.9469    23884.732   -9252.1815    650.19515   -9902.3767            0 
      50    203.24462    287.52121    24179.557   -8957.1543    484.06105   -9441.2153   0.10677147 
     100     215.5456    2.0459491    24286.506   -8823.4889    513.35789   -9336.8468   0.13746931 
     150    229.83173    18.794763      24343.6   -8740.9032     547.3827   -9288.2859   0.12511753 
     200    250.16157    81.879225    24375.249   -8692.9023    595.80161   -9288.7039   0.15445842 
     250     261.4586    143.60073    24403.291   -8613.6557    622.70738   -9236.3631   0.13425993 
     300    259.31278   -24.719936     24417.08   -8568.3158    617.59676   -9185.9126   0.16297247 
     350    259.59385   -40.317801    24432.841   -8568.2808    618.26616    -9186.547   0.17682515 
     400    255.08341   -55.573328    24445.404   -8558.6774     607.5238   -9166.2012   0.16846836 
     450    266.39456    103.06332    24455.575   -8532.5666    634.46319   -9167.0297   0.17035923 
     500    254.61487   -67.949297    24462.441     -8550.05    606.40789   -9156.4579   0.17832574 
     550    277.80301    154.99791    24468.184   -8498.2269    661.63433   -9159.8612   0.14599948 
     600    272.69746    38.747195    24477.955   -8470.2912     649.4746   -9119.7658   0.19537191 
     650    273.70612   -87.369761    24497.737   -8466.4839    651.87689   -9118.3608   0.18943444 
     700    281.21686    36.934988    24474.577   -8483.0995    669.76497   -9152.8645   0.15934254 
     750     273.6538    -42.70667     24464.79   -8488.7823    651.75228   -9140.5346   0.20170468 
     800    277.35566    -2.624942    24468.264    -8467.994    660.56888   -9128.5629   0.16455525 
     850    273.58702   -45.488022    24457.087    -8490.864    651.59324   -9142.4572   0.18967091 
     900    283.03987   -40.470928     24456.77   -8485.6581    674.10678   -9159.7649   0.19162998 
     950    265.72697   -104.10849      24460.6   -8513.6396    632.87322   -9146.5129   0.18016658 
    1000    257.46954   -89.788332     24444.66    -8537.803    613.20676   -9151.0098   0.17713533 
    1050    268.23241   -14.479273    24433.543    -8537.759    638.84035   -9176.5993   0.18004443 
    1100    263.98986   -30.708163    24434.823   -8501.0812    628.73599   -9129.8172   0.17843925 
    1150    262.79035   -83.090307    24452.896   -8533.6193    625.87915   -9159.4985   0.19228759 
    1200    290.98054     58.00963     24468.36   -8500.7517    693.01881   -9193.7706   0.14821248 
    1250    265.91297    75.793964    24468.595   -8502.7662     633.3162   -9136.0824   0.17964196 
    1300    288.40517    40.627454    24492.289     -8468.81    686.88513   -9155.6951   0.18012347 
    1350    277.71182   -84.621689    24475.328   -8514.6569    661.41713   -9176.0741   0.15814878 
    1400     272.5652    24.880102    24460.462   -8490.5167    649.15961   -9139.6764    0.2000006 
    1450     256.5788   -119.80409    24457.464   -8540.7865    611.08531   -9151.8718   0.17692306 
    1500    276.97953    62.140699    24456.558   -8518.9781    659.67307   -9178.6511   0.15866599 
    1550    272.41852    26.625298    24465.489   -8512.4359    648.81026   -9161.2462   0.18003427 
    1600    279.72761   -12.537052    24477.888   -8500.6194    666.21808   -9166.8375   0.17480528 
    1650    274.98072   -76.429995    24463.149   -8489.9864    654.91256    -9144.899   0.18353981 
    1700     276.5942   -56.673364    24461.555   -8514.9535    658.75535   -9173.7089   0.18464277 
    1750    286.78466   -33.531166     24454.25   -8496.4871    683.02562   -9179.5128   0.16564821 
    1800    282.44494    45.724743    24460.497   -8480.7679    672.68986   -9153.4578   0.18053466 
    1850    264.52973   -37.797531    24452.868   -8496.1161    630.02178   -9126.1379   0.17423585 
    1900    273.31989    5.9640951    24459.004   -8460.8479    650.95702   -9111.8049   0.19125443 
    1950    277.47303   -5.3257072    24486.768   -8458.7474    660.84841   -9119.5958    0.2052585 
    2000    286.53908    -0.687324    24489.504   -8457.9863    682.44073    -9140.427   0.16033379 
    2050    270.04739   -11.041933     24472.59   -8500.0373    643.16302   -9143.2003   0.18708058 
    2100    260.74538   -112.98245    24460.089   -8533.2056    621.00873   -9154.2143   0.19109234 
    2150    275.22673    2.0450318     24459.81   -8503.4279    655.49848   -9158.9264   0.17002014 
    2200    267.88237   -49.237591    24457.187   -8506.1684    638.00666    -9144.175   0.19559067 
    2250    280.93925    23.346052    24464.828    -8486.635     669.1038   -9155.7388   0.17870028 
    2300    273.50593   -2.6813961    24466.767   -8474.2504    651.40011   -9125.6505   0.18106225 
    2350    273.01896    100.60417    24463.686   -8469.4384     650.2403   -9119.6787   0.19818524 
    2400    277.60705   -44.896126    24479.031   -8487.1963    661.16762   -9148.3639   0.17024679 
    2450    273.36672    -82.79369    24467.505   -8505.2469    651.06857   -9156.3155   0.18730728 
    2500    268.72571   -74.351398    24482.617    -8516.502    640.01522   -9156.5172   0.16959722 
    2550    277.91322    36.190121    24468.478   -8493.7325     661.8968   -9155.6293   0.16175447 
    2600    265.40578   -82.003508    24481.605    -8494.244    632.10826   -9126.3523   0.19497627 
    2650    272.15138    23.928082    24470.751    -8495.717    648.17402    -9143.891   0.17094596 
    2700    264.40973   -59.642679    24459.939   -8524.7559    629.73599   -9154.4919   0.16824338 
    2750     280.9916   -75.899686    24462.567   -8492.2941    669.22849   -9161.5226   0.18013719 
    2800    280.49937    74.899858    24476.835   -8473.9883    668.05616   -9142.0445   0.16376969 
    2850    278.65235    68.793622    24476.978   -8467.9408    663.65716    -9131.598   0.17818794 
    2900    266.61707    -79.75991     24477.72   -8483.3419    634.99314   -9118.3351   0.19856242 
    2950    275.13105    2.2750414    24466.939   -8504.7146    655.27061   -9159.9852   0.16132067 
    3000    282.05114   -16.989819    24461.942   -8501.2683    671.75196   -9173.0203   0.17943779 
    3050    287.56681    14.636894     24473.32   -8479.3316    684.88844   -9164.2201   0.17023504 
    3100    273.87939   -45.301589    24466.224   -8489.7483    652.28956   -9142.0378   0.18313318 
    3150    276.12839    41.380524     24466.56   -8501.7877    657.64593   -9159.4336   0.16875332 
    3200    267.93005   -5.1191509    24450.296   -8548.0871    638.12022   -9186.2073   0.15906347 
    3250    280.03344    72.137497    24446.214   -8540.1373    666.94646   -9207.0837   0.16985616 
    3300    263.09217  -0.38922016    24438.037   -8562.6354      626.598   -9189.2334   0.16114914 
    3350    270.83491    3.5873161    24446.981   -8527.8209    645.03863   -9172.8595   0.15915623 
    3400    277.61382   -2.9850149    24459.553   -8509.6554    661.18375   -9170.8391   0.18555286 
    3450    283.34592    80.127544    24473.177   -8524.7247    674.83568   -9199.5604   0.15328772 
    3500    264.76203   -30.467433    24458.778   -8546.4267    630.57504   -9177.0017   0.15558668 
    3550    257.37863   -57.379123    24454.721   -8540.2858    612.99024    -9153.276   0.18248758 
    3600    282.99058   -1.9668483     24468.74   -8510.3481    673.98939   -9184.3375   0.15718974 
    3650    294.31117    46.662823    24489.043   -8451.2362    700.95126   -9152.1875   0.17419521 
    3700    274.41751   -56.386277    24481.351   -8511.4819    653.57118   -9165.0531   0.16454197 
    3750     275.4196    10.084965    24485.283     -8475.59    655.95783   -9131.5479   0.16717277 
    3800    272.30668   -25.828084    24481.059   -8475.7426    648.54389   -9124.2865   0.18167794 
    3850    278.52885   -79.513969    24482.179   -8466.1788    663.36305   -9129.5419   0.17144412 
    3900    284.46732    8.9514726    24480.272   -8473.5863     677.5065   -9151.0928   0.17512483 
    3950    268.77121   -46.154427    24486.666   -8507.7867    640.12357   -9147.9102   0.16630157 
    4000    279.11858    58.832242    24470.953   -8524.9814    664.76758    -9189.749   0.15658134 
    4050    272.48507   -20.298034    24460.885   -8530.4665    648.96876   -9179.4352   0.16448662 
    4100    268.06172     40.62314    24472.357   -8523.8211    638.43382   -9162.2549    0.1699189 
    4150    276.91118   -4.9467976    24475.932   -8505.4058    659.51028   -9164.9161   0.15732901 
    4200    279.03139    24.372576    24486.448   -8478.6393    664.55991   -9143.1992   0.17569811 
    4250    278.25579   -8.2918522    24491.325   -8501.4013     662.7127    -9164.114   0.16160763 
    4300     265.5215   -20.340312    24469.965   -8546.6119    632.38386   -9178.9957   0.15789094 
    4350    268.37244   -16.394633    24456.442   -8535.7107    639.17386   -9174.8846   0.17096822 
    4400    286.16429     102.1973    24472.132   -8488.2377    681.54812   -9169.7858   0.15218233 
    4450    267.27745    49.177218    24475.147   -8523.7226    636.56595   -9160.2886   0.17131786 
    4500    277.15351    60.397119    24475.718   -8516.8741    660.08743   -9176.9616   0.14483128 
    4550    270.65742    6.1417866    24471.496   -8508.3881     644.6159    -9153.004   0.16408053 
    4600     258.7702   -57.356904    24466.413   -8560.7095     616.3045    -9177.014   0.15846793 
    4650     276.0367    79.301485    24486.044    -8493.083    657.42756   -9150.5105   0.16341489 
    4700    277.32389    67.407892    24486.966   -8496.9596    660.49321   -9157.4529   0.15828255 
    4750     276.8383   -15.473221    24516.389   -8474.5401     659.3367   -9133.8768   0.18167087 
    4800    278.73951   -18.559679    24508.033   -8481.1142    663.86476   -9144.9789   0.15346092 
    4850    286.08517     -28.5879    24508.709   -8479.5532    681.35969   -9160.9129   0.16594038 
    4900    289.71975    41.764323    24506.048   -8471.7002    690.01602   -9161.7162   0.16915902 
    4950    276.92415   -90.983918    24507.081   -8472.1321    659.54116   -9131.6733   0.17420689 
    5000    265.55075   -67.391735    24488.614   -8518.2767    632.45353   -9150.7302    0.1712549 
    5050    273.92638    69.329351    24468.507   -8497.8183    652.40149   -9150.2197    0.1589921 
    5100    272.27959  -0.42886908    24479.056   -8482.3166    648.47937   -9130.7959   0.17676151 
    5150     276.6684    1.3146979     24492.69   -8477.6903    658.93206   -9136.6223   0.16798173 
    5200    270.05923   -105.37262    24481.942   -8501.1934    643.19123   -9144.3846   0.17202343 
    5250    254.89458   -78.983716    24472.826   -8559.8226    607.07407   -9166.8967   0.16167758 
    5300    265.02982   -72.377128      24467.2    -8536.418    631.21284   -9167.6308   0.16763703 
    5350    262.47764    60.647615    24481.066   -8538.4234    625.13441   -9163.5578   0.14859935 
    5400    254.18072   -47.093711    24468.512   -8537.9198    605.37389   -9143.2937   0.18023364 
    5450    267.55273   -57.558053    24472.155   -8534.6164    637.22158    -9171.838   0.16234363 
    5500     272.7159    12.679078     24475.91   -8531.8014    649.51852   -9181.3199   0.16471056 
    5550    272.84093    48.819148    24474.058   -8525.4181     649.8163   -9175.2344   0.16344305 
    5600    266.38331   -23.282603    24453.589   -8553.3534    634.43641   -9187.7898   0.16134699 
    5650    267.82019     36.87433    24469.414   -8521.9669    637.85856   -9159.8255    0.1669693 
    5700    278.77879    54.487039    24470.338    -8521.446    663.95831   -9185.4043   0.16121282 
    5750    264.84511   -41.130054     24465.12   -8527.0267    630.77291   -9157.7996   0.16450708 
    5800     265.4561    18.256556    24468.024   -8515.2881     632.2281   -9147.5163   0.16427835 
    5850    260.43925   -30.616677    24472.028   -8492.5851    620.27963   -9112.8648   0.17976196 
    5900    259.15751   -76.996856    24450.978   -8564.5998    617.22694   -9181.8267   0.15050897 
    5950      261.717   -37.550027    24438.085   -8543.8868     623.3228   -9167.2095   0.17243777 
    6000    250.79786   -39.135995    24434.884   -8575.0126    597.31705   -9172.3297   0.15750872 
    6050     274.0254   -38.111152    24440.343   -8536.4247    652.63731    -9189.062   0.16657846 
    6100    279.35319    35.538346    24431.084   -8530.5759    665.32633   -9195.9022   0.15998515 
    6150    260.21994   -34.590206    24437.509   -8552.6126     619.7573   -9172.3699    0.1726547 
    6200    264.00941     28.34221    24430.179   -8536.6204    628.78255   -9165.4029   0.16363547 
    6250    259.64547   -80.319905    24439.175   -8515.1183     618.3891   -9133.5074   0.17845689 
    6300    273.21463    26.295433    24456.172   -8491.0886    650.70633   -9141.7949   0.17639419 
    6350    287.50977    50.175148    24463.113   -8457.4465     684.7526   -9142.1991   0.17980885 
    6400     269.7686    2.7146791    24476.116   -8504.1577    642.49904   -9146.6567   0.16719912 
    6450    265.24255    39.228685    24463.346   -8535.2655    631.71949    -9166.985   0.16573447 
    6500    267.85737    -12.90281     24449.57   -8542.4192    637.94712   -9180.3663   0.16852559 
    6550    270.08254    30.710134    24450.432   -8542.1517    643.24675   -9185.3984    0.1514638 
    6600     269.3106    56.326836    24435.685   -8550.4354    641.40822   -9191.8436   0.16805051 
    6650    267.33645   -12.185413    24451.035   -8547.1556    636.70646    -9183.862    0.1587037 
    6700    259.78174    40.620642    24457.322   -8537.5405    618.71366   -9156.2542   0.16562279 
    6750    266.68313   -76.927138    24452.835   -8558.3413    635.15048   -9193.4918   0.16458056 
    6800    265.12886   -28.258483    24441.986   -8549.3456    631.44873   -9180.7944    0.1678213 
    6850    275.79073    6.4483625    24451.235   -8533.9084    656.84174   -9190.7501   0.16043731 
    6900    273.74597    53.566149    24470.144   -8518.1969    651.97181   -9170.1687   0.16935472 
    6950    284.62969   -2.3141154    24467.682   -8488.9579    677.89319   -9166.8511    0.1626375 
    7000     268.6499       -24.67    24467.093   -8512.8018    639.83465   -9152.6365   0.16550849 
    7050    277.59142    120.83974    24475.008    -8482.136    661.13039   -9143.2664   0.16344953 
    7100    275.24974    25.394395    24469.205   -8516.3068    655.55328     -9171.86   0.16131314 
    7150     271.3718   -44.373839      24472.1   -8496.5709    646.31732   -9142.8882   0.18034776 
    7200    268.50917   -59.269844    24467.861    -8538.765    639.49949   -9178.2645   0.15595208 
    7250     260.1512   -4.2696924    24451.864   -8563.6764    619.59358   -9183.2699   0.16614986 
    7300    249.86254   -3.1725979    24448.408   -8578.8432    595.08943   -9173.9326   0.16175673 
    7350    261.23514   -59.425314     24453.67     -8550.19    622.17518   -9172.3652    0.1733766 
    7400    258.09587  -0.11541268    24446.677   -8541.2702    614.69847   -9155.9687   0.16256452 
    7450    260.41239   -28.596221    24449.272   -8524.0707    620.21565   -9144.2863   0.16912903 
    7500    276.48747    113.38829    24462.273   -8513.4699    658.50115    -9171.971   0.16344239 
    7550    265.75421   -84.541335    24476.405   -8521.9156    632.93808   -9154.8537   0.17574224 
    7600     269.1955    11.061903    24462.455   -8524.3146    641.13409   -9165.4487   0.16059972 
    7650    267.55779   -79.227249    24463.235   -8508.4522    637.23363   -9145.6858   0.17377099 
    7700    277.46576   -29.684608    24464.206   -8493.3636    660.83112   -9154.1947   0.17813515 
    7750    269.66548    4.5081908    24442.244   -8534.9156    642.25344   -9177.1691   0.16125345 
    7800    272.71527    68.512044     24443.04    -8531.621    649.51702    -9181.138   0.18253006 
    7850    253.82174   -13.880064    24439.101   -8566.3072    604.51892   -9170.8261   0.16429949 
    7900    257.18921   -51.586931    24437.973   -8563.5033     612.5391   -9176.0424   0.16659301 
    7950    279.16608   -9.7796077    24452.934   -8498.5773     664.8807    -9163.458    0.1725707 
    8000    270.77492   -29.065193    24451.481   -8499.7003    644.89575    -9144.596   0.18258324 
    8050    274.95597   -37.003606    24458.712   -8494.4271    654.85363   -9149.2807   0.17092058 
    8100    273.36528   -17.705925     24465.74   -8498.1327    651.06512   -9149.1978   0.17595479 
    8150    284.17362    59.466668    24475.843   -8458.8577    676.80701   -9135.6647   0.16873033 
    8200    278.20186   -57.994601    24465.923   -8481.0213    662.58426   -9143.6056   0.17527445 
    8250    282.15508    26.408106    24459.069   -8476.5255    671.99952   -9148.5251   0.17624444 
    8300    284.79345   -25.978755    24451.309   -8479.1769    678.28322   -9157.4601   0.17387329 
    8350    290.98503    37.198689    24456.735   -8471.5624    693.02951   -9164.5919   0.17733414 
    8400    279.03269   -41.313264    24464.027   -8447.2249    664.56303   -9111.7879   0.17167534 
    8450    272.23964      15.1054    24471.554   -8470.4189    648.38422   -9118.8032   0.18460687 
    8500    269.36443    -4.548231    24463.686   -8494.3624    641.53643   -9135.8988   0.17697008 
    8550    270.32338   -4.2867652    24453.768   -8521.6117    643.82033   -9165.4321   0.16235681 
    8600    266.58491    19.864746    24444.611   -8510.7178    634.91655   -9145.6344    0.1773803 
    8650    267.69218   -3.8199097    24453.589    -8527.329     637.5537   -9164.8827    0.1697805 
    8700    267.18881    2.2031868    24440.829   -8487.4169    636.35484   -9123.7717   0.17181849 
    8750    274.06299    9.5514983    24448.939   -8513.1093    652.72684   -9165.8361   0.17675128 
    8800    267.87915   -70.771803    24440.469   -8535.3953    637.99898   -9173.3942   0.16328411 
    8850    275.03776   -14.737573    24442.605   -8520.6542    655.04843   -9175.7027   0.16770549 
    8900    264.55114   -20.479986    24429.785   -8534.5344    630.07277   -9164.6072   0.17259262 
    8950    275.41026   -5.9355719    24439.788   -8542.3026     655.9356   -9198.2382   0.15721848 
    9000    267.49048    43.824942    24433.973   -8542.6704    637.07331   -9179.7437   0.16713787 
    9050     283.6484     87.79925    24445.113   -8508.6979     675.5561    -9184.254   0.16380108 
    9100    272.54591    31.511762    24447.703    -8514.099    649.11366   -9163.2126   0.17054806 
    9150    273.52397   -49.873766    24440.074   -8532.5769    651.44308   -9184.0199   0.16848116 
    9200    284.69067    -61.60481    24458.688   -8486.4361    678.03845   -9164.4746   0.16775869 
    9250      279.584    41.314869    24463.239   -8478.3428    665.87604   -9144.2188   0.17281527 
    9300    263.28966   -53.144474    24461.334   -8511.3959    627.06836   -9138.4642   0.17677835 
    9350    261.66697   -71.725705    24439.166   -8559.2291    623.20364   -9182.4327   0.15382231 
    9400     266.1904    19.991869     24435.26   -8548.5545    633.97694   -9182.5315   0.16460729 
    9450     266.6459   -24.371837    24450.213   -8534.4138     635.0618   -9169.4756   0.17001974 
    9500    267.28357   -96.258385     24454.34   -8536.2497    636.58052   -9172.8303   0.17100825 
    9550    263.25122    47.059945    24447.737   -8550.0536    626.97681   -9177.0305   0.16249288 
    9600    256.66349    87.699958    24438.796   -8542.7923    611.28702   -9154.0794    0.1627104 
    9650    271.39524    86.169233    24433.801   -8529.1809    646.37314   -9175.5541   0.17063788 
    9700     268.4918   -16.017569    24453.162   -8513.8889    639.45813    -9153.347   0.17238431 
    9750    288.60785    51.242551    24450.847   -8488.9361    687.36785    -9176.304   0.16337954 
    9800    278.77896    30.017654    24455.182   -8496.2773     663.9587    -9160.236    0.1665736 
    9850     277.0415    47.653895    24459.984   -8495.7968    659.82067   -9155.6175   0.15897592 
    9900    277.08948   -14.303885    24459.494   -8498.7283    659.93494   -9158.6633   0.16100086 
    9950    270.95773   -4.6389634    24456.343   -8491.8654    645.33114   -9137.1965   0.17935729 
   10000    290.90441    15.153596    24458.586   -8488.4435    692.83751    -9181.281   0.15086516 
   10050     265.1536    60.133715    24443.442   -8522.8723    631.50765     -9154.38    0.1618915 
   10100     279.7388    101.85629    24457.329   -8491.0781    666.24473   -9157.3229   0.16486039 
   10150    276.07355    24.907166    24468.551   -8491.2667    657.51532    -9148.782   0.16565871 
   10200    289.16009    13.837774    24473.835   -8468.2196     688.6831   -9156.9027   0.17667062 
   10250    294.16712    134.18934    24475.579    -8442.735    700.60818   -9143.3432   0.16594224 
   10300    282.78827   -110.91864    24491.079   -8463.8423    673.50756   -9137.3499   0.17685219 
   10350    286.26367    41.847382    24470.936   -8463.1382     681.7848    -9144.923   0.17548826 
   10400    280.49416   -51.591795    24465.867   -8475.8365    668.04374   -9143.8803   0.17633691 
   10450    269.70508   -32.934556    24466.022   -8482.4274    642.34775   -9124.7752   0.17465602 
   10500    266.27876    12.745922    24457.289   -8507.7775    634.18739   -9141.9649   0.17705456 
   10550    271.00863   -41.790412    24446.953    -8521.736    645.45237   -9167.1884   0.16447378 
   10600    271.02456   -51.951158    24433.264   -8553.1419    645.49032   -9198.6322   0.16689889 
   10650    264.37407   -56.302031    24429.565   -8552.6195    629.65106   -9182.2705   0.16294854 
   10700    279.02852     15.90006    24428.756   -8543.9802    664.55308   -9208.5333   0.15340735 
   10750    266.07643   -58.406874    24437.952   -8540.1241    633.70552   -9173.8296   0.16736955 
   10800    270.09297   -66.410907    24436.706   -8545.4074    643.27158   -9188.6789   0.15775713 
   10850    256.11027    -90.63047    24429.872   -8575.0785    609.96943    -9185.048   0.16087681 
   10900    266.77753    32.083581    24424.049   -8576.1817     635.3753    -9211.557   0.14914838 
   10950    260.57805     16.80661    24429.707   -8580.1161     620.6102   -9200.7263   0.15133989 
   11000    259.43517   -62.198821    24435.507   -8598.1324    617.88825   -9216.0206   0.15185441 
   11050    273.26949    42.802678    24438.303   -8545.9516    650.83699   -9196.7886   0.15211203 
   11100    283.00552    111.32975    24457.119   -8496.1085    674.02496   -9170.1335   0.16609999 
   11150    271.83352    35.327516    24468.947    -8502.312    647.41699    -9149.729   0.17216718 
   11200    275.13418    58.932571    24465.379   -8508.3398    655.27806   -9163.6178    0.1511658 
   11250    269.47749   -22.583811    24460.468   -8549.6892     641.8057   -9191.4949   0.16347181 
   11300     266.2754   -4.8959398    24446.972   -8540.3369    634.17939   -9174.5163   0.16974898 
   11350    268.55882    27.438055    24450.621   -8528.0529    639.61774   -9167.6706   0.15419482 
   11400    265.49121    8.9611741    24444.123   -8548.3792    632.31173    -9180.691   0.16200016 
   11450    269.59446    35.358798    24449.713   -8514.5233     642.0843   -9156.6076   0.16653481 
   11500    276.58798    17.572909    24447.343   -8509.6124    658.74053   -9168.3529   0.16075642 
   11550    289.34316      13.5719    24465.926   -8465.3001    689.11911   -9154.4192   0.16279813 
   11600    273.31213   -31.459741    24474.472    -8455.178    650.93855   -9106.1166   0.18505023 
   11650    276.91533    6.6464081    24471.669   -8458.4654    659.52018   -9117.9856   0.16476548 
   11700    284.18122    66.414397    24473.694   -8459.9386    676.82509   -9136.7637   0.16679019 
   11750    291.86677    18.679193    24478.845   -8435.7174    695.12953   -9130.8469   0.16976615 
   11800    292.54134    18.182844    24493.125   -8449.9472    696.73612   -9146.6834   0.18036052 
   11850    288.57079     25.72611    24491.315   -8478.6997    687.27959   -9165.9793   0.15473811 
   11900    275.25718    6.4898093    24470.172   -8494.2062    655.57101   -9149.7772   0.17944548 
   11950    281.82068     37.40182    24468.257   -8499.4337    671.20308   -9170.6368   0.16584698 
   12000    281.89167    48.358078    24466.154   -8506.5064    671.37216   -9177.8786   0.15518397 
   12050    266.78052   -3.4291175    24459.752   -8480.5718    635.38241   -9115.9542    0.1814259 
   12100    284.39224   -65.466217    24461.751   -8485.8805    677.32769   -9163.2081   0.17680232 
   12150    273.05387    38.679968    24451.319   -8518.2584    650.32345   -9168.5819   0.16753696 
   12200    282.49631    16.798093    24450.647   -8507.4686     672.8122   -9180.2808    0.1652693 
   12250    278.65941    1.1765548     24456.25   -8496.5441    663.67398   -9160.2181    0.1776839 
   12300    271.84552   -58.767288    24458.003   -8518.7994    647.44556   -9166.2449    0.1569062 
   12350    265.84477   -31.451328    24451.232   -8550.7906    633.15377   -9183.9444   0.16470422 
   12400    277.16565    49.142551    24458.072   -8525.3769    660.11635   -9185.4932   0.15282672 
   12450    270.58476   -46.920821    24462.249    -8496.093    644.44286   -9140.5359   0.17733537 
   12500    273.94108    44.011167     24472.31   -8504.2571     652.4365   -9156.6935   0.15648697 
   12550    268.20265    54.356978    24458.031   -8487.0019    638.76946   -9125.7714   0.16920912 
   12600       275.43   -27.806758    24456.255    -8492.399     655.9826   -9148.3816   0.17007648 
   12650    272.66993    48.496652    24473.718   -8491.5719    649.40904   -9140.9809   0.16686772 
   12700     274.5929    75.444891     24478.25   -8494.9798     653.9889   -9148.9687    0.1605964 
   12750    277.15017   -85.524411    24467.065   -8498.9983    660.07948   -9159.0778   0.17163398 
   12800    268.42194   -64.709588    24455.177   -8530.3889    639.29175   -9169.6806   0.17054036 
   12850    270.81143   -5.6229351    24457.302   -8501.1919    644.98271   -9146.1746   0.16447484 
   12900    260.35797   -28.370299     24447.82   -8526.1144    620.08605   -9146.2005   0.17418506 
   12950    273.70133    11.043308    24451.194   -8500.2521     651.8655   -9152.1176   0.16917713 
   13000    277.20701   -65.850942    24457.937   -8478.3601    660.21485    -9138.575   0.17996504 
   13050    279.54965    15.042974    24447.542   -8500.1531    665.79425   -9165.9473    0.1613311 
   13100    271.81245   -18.274293    24443.381   -8517.0944     647.3668   -9164.4612   0.18697541 
   13150    266.73485   -46.697247    24445.976   -8537.2939    635.27364   -9172.5675   0.16709129 
   13200    280.14046   -4.2835098    24448.522   -8547.4361    667.20135   -9214.6374   0.15002117 
   13250    261.09792   -76.846407    24448.398   -8532.4544    621.84836   -9154.3027   0.17602809 
   13300    258.17772   -4.4762126    24455.479   -8540.5133    614.89341   -9155.4067   0.16536077 
   13350    256.21364   -2.0846536    24444.324   -8556.5281    610.21562   -9166.7437   0.16070213 
   13400    261.50661   -57.767197    24447.249   -8542.3716    622.82173   -9165.1933   0.16810408 
   13450    272.80134    12.642467    24447.576   -8549.1718      649.722   -9198.8938   0.15310822 
   13500      279.672    65.509932    24450.348   -8519.0176    666.08563   -9185.1033   0.15218007 
   13550    270.47673   -10.763489    24458.852   -8506.8978    644.18557   -9151.0834   0.17465713 
   13600    281.14242    44.452421      24455.9   -8520.7533    669.58768    -9190.341   0.16072914 
   13650    264.73225    25.640693    24456.503   -8514.2577    630.50411   -9144.7618   0.17761032 
   13700    272.65228    79.309925     24460.28   -8533.1474    649.36699   -9182.5144   0.15050498 
   13750    271.46539   -4.0226944    24462.836   -8532.9098    646.54022   -9179.4501   0.16474127 
   13800     288.0235    69.965512    24468.153    -8512.758    685.97612   -9198.7341   0.16358126 
   13850    267.69938    50.184268    24476.525   -8509.6507    637.57083   -9147.2215   0.16540279 
   13900     257.3256    28.647502    24454.744   -8518.2871    612.86395    -9131.151   0.17262255 
   13950     284.1073    12.616152    24455.956   -8490.9729    676.64905   -9167.6219   0.17047967 
   14000    287.70525    14.178708    24466.834   -8483.3676    685.21817   -9168.5858   0.17129135 
   14050    282.48094   -18.556914    24478.833   -8452.4135    672.77559   -9125.1891   0.18629968 
   14100     288.3174    12.205295    24485.036   -8473.8958    686.67609   -9160.5719   0.17832377 
   14150     277.6697   -77.942637    24477.514   -8508.2676    661.31683   -9169.5844   0.16234874 
   14200    265.02813   -85.452124    24466.429   -8524.8026    631.20881   -9156.0114   0.17783647 
   14250    275.29016   -34.441137    24466.747   -8500.9975    655.64955    -9156.647   0.16884979 
   14300    268.76312   -1.8530717    24466.618   -8530.3291    640.10431   -9170.4335   0.17628657 
   14350    261.94775   -25.840345    24458.692   -8574.1476    623.87237   -9198.0199   0.16290398 
   14400    262.23377    12.019891    24442.057   -8561.3621    624.55358   -9185.9157   0.16413341 
   14450    264.08401    53.762136    24447.838   -8554.4018    628.96023    -9183.362    0.1681087 
   14500     272.4763    44.417056    24451.145   -8523.8793    648.94787   -9172.8272   0.17313184 
   14550    271.43423   -15.996665    24456.543    -8555.531    646.46601    -9201.997   0.16251538 
   14600     270.2491    98.643812    24466.874   -8531.7096    643.64342    -9175.353   0.18155076 
   14650    270.29622    1.0538904    24474.227   -8505.4319    643.75566   -9149.1875   0.17090159 
   14700    277.83705   -26.921409    24469.666   -8498.4254     661.7154   -9160.1408   0.17702065 
   14750     269.0643   -39.051755    24473.061   -8519.8279    640.82162   -9160.6496   0.18993324 
   14800    277.37106    107.52787    24476.646   -8466.0448    660.60557   -9126.6504   0.17014122 
   14850    276.34195    45.671154    24477.081   -8502.3439    658.15456   -9160.4985    0.1717253 
   14900    263.42221    -62.49456    24461.281   -8505.3777    627.38404   -9132.7618   0.18960699 
   14950    280.45969    99.545323    24466.473   -8498.8052    667.96164   -9166.7668   0.16847503 
   15000    269.95797   -50.325477    24455.018   -8512.0009    642.95006    -9154.951   0.18287872 
   15050    275.29553   -17.240027    24445.997    -8517.728    655.66235   -9173.3903   0.17977148 
   15100    276.03995    70.074294    24452.656   -8528.0687    657.43531    -9185.504   0.15878225 
   15150      267.867    67.005082    24450.733   -8525.5285    637.97006   -9163.4985   0.17398141 
   15200    268.82161   -1.1368852    24460.403   -8531.2237    640.24361   -9171.4674   0.16157553 
   15250    277.01215    48.833476    24469.055   -8487.6693    659.75075     -9147.42   0.18272083 
   15300     273.0226    29.045931    24472.068   -8504.3988    650.24898   -9154.6478   0.16606562 
   15350    263.57113   -12.983787    24476.971   -8533.5797    627.73873   -9161.3184   0.16159392 
   15400      267.798    15.889552    24473.814   -8533.6458    637.80572   -9171.4516   0.16218946 
   15450    275.94803    19.751746    24474.199   -8531.3671    657.21638   -9188.5835    0.1591634 
   15500    267.45008   -17.655942      24465.7   -8542.8503    636.97709   -9179.8274   0.16523242 
   15550    283.05418    69.211453    24466.324   -8491.7632    674.14087    -9165.904   0.16583438 
   15600    279.20069    74.257127     24487.82    -8465.532    664.96313   -9130.4951   0.17309001 
   15650    283.47977    106.20702    24503.535   -8446.4816    675.15448   -9121.6361   0.17186034 
   15700    268.58572    33.071254    24496.857   -8475.8942     639.6818    -9115.576   0.17548253 
   15750    275.55674    6.5236178    24504.503   -8458.8711    656.28447   -9115.1555   0.17199155 
   15800    286.88814    109.23836    24497.678   -8471.4924    683.27209   -9154.7645    0.1814169 
   15850    286.54881    24.868966    24491.252   -8491.8817    682.46391   -9174.3456   0.15519891 
   15900    277.08882    32.734789    24482.776    -8484.107    659.93335   -9144.0403   0.16753138 
   15950    274.51774   -3.4862821    24474.119   -8482.9914    653.80991   -9136.8013   0.17779806 
   16000    279.78238    90.027998    24468.298    -8499.993    666.34852   -9166.3415   0.15354318 
   16050    272.31819   -65.019314    24468.496   -8511.4564     648.5713   -9160.0277   0.16402071 
   16100    272.04857    31.479423    24471.022   -8532.5114    647.92916   -9180.4405   0.16585874 
   16150    276.43946   -23.162563    24470.805   -8531.0682     658.3868    -9189.455   0.15170009 
   16200    283.82992   -30.289225     24479.97    -8471.189    675.98841   -9147.1774   0.16568403 
   16250     273.9241   -63.536537    24476.491   -8492.9027    652.39605   -9145.2987   0.18017669 
   16300    268.20542   -112.19091      24479.9   -8486.8601    638.77606   -9125.6361   0.17064118 
   16350    264.54913   -122.20912    24467.722    -8516.997    630.06799    -9147.065   0.16440998 
   16400    271.69896    36.007132    24463.578   -8508.2453    647.09651   -9155.3418   0.16930822 
   16450    268.37834   -44.983689    24454.045   -8515.6177    639.18789   -9154.8056   0.17144391 
   16500    264.69654   -68.501114    24457.358   -8524.9543    630.41908   -9155.3734   0.16930256 
   16550    280.73923   -87.922992    24466.047   -8486.4519    668.62743   -9155.0793   0.17779564 
   16600    279.50978   -23.344016    24476.902   -8481.5905    665.69927   -9147.2897   0.17175307 
   16650    285.96896    161.66708    24485.756   -8458.4104    681.08291   -9139.4933   0.16460522 
   16700    271.99993   -112.94284     24476.29   -8480.4903    647.81333   -9128.3036   0.18106904 
   16750    278.56889    81.500969     24470.26   -8479.4552    663.45841   -9142.9137    0.1826604 
   16800    280.87169    63.385468    24473.289   -8505.0177     668.9429   -9173.9606   0.16310245 
   16850    270.95485    14.882776    24470.588   -8513.7607    645.32428    -9159.085   0.16669736 
   16900    271.22012    54.491396    24470.881   -8494.1512    645.95607   -9140.1073   0.17027468 
   16950     271.0409   0.17209585    24462.171   -8533.2639    645.52924   -9178.7931   0.15563115 
   17000    261.42139    19.515278    24460.795   -8536.6417    622.61877   -9159.2604    0.1682127 
   17050    262.88803    18.707578    24450.557   -8542.8676     626.1118   -9168.9794   0.15838291 
   17100     274.9123    30.848072    24449.134   -8524.4653    654.74962   -9179.2149   0.15220952 
   17150    270.17722   -17.637246    24466.108   -8520.4004    643.47223   -9163.8726   0.16282094 
   17200    265.10151    103.01042    24446.504   -8552.0688    631.38358   -9183.4524   0.15470026 
   17250    258.28929    33.868596     24446.24   -8563.2339    615.15914    -9178.393   0.15765145 
   17300    261.76263   -24.717336    24454.615   -8558.9848    623.43147   -9182.4162   0.16747943 
   17350    267.19877    23.695365    24452.012   -8574.7029    636.37854   -9211.0814   0.14514493 
   17400    275.84615    53.693362    24438.514   -8560.3827    656.97374   -9217.3564   0.15197268 
   17450    262.18994   -14.659437    24443.822   -8584.2427    624.44919   -9208.6919    0.1591719 
   17500    279.47871    49.600109    24444.533   -8523.2234    665.62528   -9188.8487   0.16019173 
   17550    276.19131    77.459048    24454.811   -8527.7992    657.79579    -9185.595   0.15936856 
   17600    265.35854    47.253033    24463.698   -8493.4049    631.99573   -9125.4006   0.17472249 
   17650    258.54826   -42.708553    24462.306   -8532.2932    615.77593   -9148.0691   0.16479601 
   17700     271.7982    30.132334    24450.247   -8523.9705    647.33286   -9171.3034   0.15729148 
   17750    271.10864   -76.028865     24444.33   -8526.2474    645.69056   -9171.9379   0.16840195 
   17800    259.26832   -58.496045    24439.429   -8549.4989    617.49086   -9166.9897   0.17864852 
   17850    270.60557    68.249371    24443.911   -8527.3402    644.49242   -9171.8326   0.15598201 
   17900    284.71707    101.20709    24447.363   -8491.0032    678.10131   -9169.1045   0.16416973 
   17950    273.62971   -34.148992     24462.25   -8495.7853    651.69491   -9147.4802   0.18745128 
   18000    269.16475    -25.52805    24457.894   -8509.6886    641.06087   -9150.7494   0.16390412 
   18050    274.38818   -5.5287062    24448.512   -8521.3633    653.50132   -9174.8647   0.17477561 
   18100    268.22544   -34.660538    24467.318    -8486.262    638.82374   -9125.0858   0.17633329 
   18150    270.73824     6.045168    24474.381   -8494.8953     644.8084   -9139.7036    0.1615044 
   18200    269.89005   -20.582109    24459.257    -8505.013    642.78829   -9147.8013    0.1747624 
   18250    280.47147   -12.103332    24451.384   -8510.2541    667.98972   -9178.2439   0.17196865 
   18300    271.24338   -25.365059    24459.869   -8503.0701    646.01148   -9149.0815   0.16892674 
   18350    282.47376    36.114869    24477.698   -8464.9057    672.75849   -9137.6642   0.16590907 
   18400    267.51248   -23.586196    24471.195   -8501.7365    637.12572   -9138.8622   0.16956192 
   18450    264.74355   -49.658706    24466.875   -8511.6853    630.53103   -9142.2164   0.17160689 
   18500     265.8284   -60.272082    24455.801   -8529.7797     633.1148   -9162.8945   0.16789086 
   18550    276.07977    19.550173    24467.467   -8508.2414    657.53013   -9165.7715   0.16110289 
   18600    270.34609   -113.30334    24465.774    -8484.503    643.87441   -9128.3774   0.17694653 
   18650     280.1979  0.032066228    24471.073   -8476.8015    667.33816   -9144.1397    0.1671562 
   18700    277.29052    2.3747458     24478.85   -8504.3091    660.41374   -9164.7229   0.16657809 
   18750    278.51555    10.018948    24485.571   -8493.2257    663.33136    -9156.557    0.1680254 
   18800    267.23864   -34.133972    24474.191   -8536.7127    636.47351   -9173.1862   0.15847989 
   18850     278.1917    68.676438    24462.828   -8522.0564    662.56006   -9184.6165   0.15829171 
   18900    273.87793     35.84018    24469.916   -8488.7933     652.2861   -9141.0794   0.16112244 
   18950    269.82644   -69.061064    24464.214   -8513.1225     642.6368   -9155.7593   0.17591892 
   19000    278.59209    71.957883    24465.996   -8495.4771    663.51366   -9158.9907    0.1604602 
   19050    279.35001   -14.555208    24479.651   -8477.3398    665.31875   -9142.6586   0.17490835 
   19100    273.59463   -100.05087    24476.094   -8511.6143    651.61136   -9163.2257    0.1726189 
   19150    283.52601    27.506987    24485.912   -8470.0558    675.26461   -9145.3204   0.17750827 
   19200    269.66264   -33.814024    24497.466   -8495.1224    642.24667   -9137.3691   0.16138802 
   19250     264.5828   -71.167344    24469.347   -8511.8813    630.14818   -9142.0294   0.18721689 
   19300    269.38482    8.1974672    24477.046   -8481.8582    641.58501   -9123.4432   0.18247628 
   19350    281.78167    47.337547    24490.737   -8452.9423    671.11016   -9124.0524     0.166333 
   19400    281.49473   -90.333647    24496.286   -8454.9894    670.42678   -9125.4162   0.17733793 
   19450    280.50341   -29.401117    24478.086   -8479.7137    668.06578   -9147.7795   0.16925835 
   19500    270.64499    65.253438    24463.492   -8493.0975    644.58631   -9137.6839   0.16109994 
   19550    271.84418   -20.264449    24475.515   -8474.6482    647.44237   -9122.0906   0.17155457 
   19600    265.65436    92.482979    24478.405   -8472.5233    632.70029   -9105.2236   0.18286854 
   19650    275.09118   -6.0821854    24471.914   -8481.8204    655.17565    -9136.996   0.16328804 
   19700    278.76978    23.656023     24484.19   -8490.8648    663.93684   -9154.8016   0.18632272 
   19750    289.94533   -34.982428    24469.726   -8489.6964    690.55329   -9180.2497   0.16756562 
   19800     280.7108   -24.063587    24465.095   -8492.6663    668.55972    -9161.226    0.1743442 
   19850     275.3653   -12.939869    24486.849   -8499.2321    655.82851   -9155.0606   0.16090524 
   19900    282.35616  -0.04211542    24500.296   -8459.8226    672.47842    -9132.301    0.1675116 
   19950    275.00008   -35.759138    24498.781   -8495.9378    654.95868   -9150.8965   0.16183326 
   20000    272.18679   -5.2977056    24486.571   -8509.8111    648.25835   -9158.0695   0.15809082 
   20050    269.47494   -12.271437    24484.556   -8518.2959    641.79964   -9160.0956   0.15787101 
   20100    261.06356   -36.232486    24470.892   -8508.0151    621.76652   -9129.7816   0.16381475 
   20150    261.17065    1.4114594    24467.826    -8521.554    622.02158   -9143.5756   0.15994781 
   20200    264.52722   -129.95533    24464.056   -8500.7553    630.01582   -9130.7711   0.16980551 
   20250     263.1466     18.26867    24457.815   -8527.1792    626.72763   -9153.9069    0.1656598 
   20300    270.00257   -29.136186    24467.735   -8513.9152    643.05628   -9156.9715   0.15345873 
   20350    268.24699    30.818158    24468.845   -8482.6485    638.87508   -9121.5235   0.17902726 
   20400    281.59542   -24.169756    24468.756    -8471.489    670.66658   -9142.1556   0.15736078 
   20450    279.69737    63.968397    24480.889   -8480.2911    666.14606   -9146.4371   0.17072625 
   20500    265.65823    23.914809     24469.12   -8506.8817    632.70951   -9139.5912   0.16341007 
   20550    271.80407    56.877159    24469.384    -8533.303    647.34685   -9180.6499   0.15712877 
   20600    275.32728   -61.268151    24449.879   -8561.4335    655.73797   -9217.1714   0.14612501 
   20650    272.34639   -42.364187    24439.623   -8533.5995    648.63846    -9182.238   0.16549225 
   20700    259.80987   -98.978593    24435.851   -8574.5016    618.78064   -9193.2822   0.15221681 
   20750    274.78433   -6.8693866    24441.056   -8518.7156    654.44483   -9173.1604   0.16025291 
   20800    263.14775    -62.48719    24444.101   -8538.1251    626.73038   -9164.8555   0.16703244 
   20850    275.91822   -3.3633898    24459.196   -8491.8781    657.14538   -9149.0235     0.157951 
   20900    277.36802   -58.479192     24468.52   -8478.2725    660.59832   -9138.8708   0.17260799 
   20950     279.6077    32.429659    24465.416   -8494.8411    665.93249   -9160.7736   0.15464598 
   21000    287.51603    3.8072336    24465.253   -8517.7001     684.7675   -9202.4676   0.15650205 
   21050    270.17364   -74.674203    24467.098   -8527.1106    643.46371   -9170.5743   0.14482111 
   21100    276.43551   -65.429672    24462.714   -8499.4939     658.3774   -9157.8714    0.1703626 
   21150    270.23858    55.004334     24470.32   -8503.4228    643.61837   -9147.0412   0.16012213 
   21200    276.17304   -24.752425    24471.112   -8511.6416    657.75227   -9169.3939   0.16041038 
   21250    272.37099   -120.65457    24479.396   -8503.9747    648.69705   -9152.6718   0.16675766 
   21300     285.0457   -16.740391    24475.431    -8473.791    678.88401    -9152.675   0.16826116 
   21350     272.7647     83.64587    24474.917    -8479.423    649.63475   -9129.0578   0.15922896 
   21400    269.24314   -24.206885    24471.546   -8507.1663    641.24756   -9148.4138   0.17119711 
   21450    272.20718   -31.936755    24460.915   -8512.8156    648.30693   -9161.1225   0.17078553 
   21500    282.13212    120.89062    24469.408   -8473.0379    671.94482   -9144.9827   0.16219089 
   21550    290.09489    93.442792    24468.709    -8469.221    690.90949   -9160.1305    0.1748262 
   21600    272.14861    56.516369    24464.169   -8486.4002    648.16742   -9134.5676   0.17186391 
   21650    283.93017    108.69618    24466.892    -8462.958    676.22717   -9139.1852   0.17332131 
   21700    276.73897    43.657606     24467.51   -8499.7403    659.10014   -9158.8405   0.16015258 
   21750    273.04754    33.166344    24460.282   -8528.0027    650.30838   -9178.3111   0.16654011 
   21800    272.67936    18.829518    24449.116   -8545.2913     649.4315   -9194.7228   0.15217958 
   21850     271.9357    45.673196    24448.754   -8528.7755    647.66034   -9176.4358   0.16348636 
   21900     276.7908    60.866948    24446.789   -8524.8223    659.22359   -9184.0459   0.15448849 
   21950    262.80933   -43.750347    24454.414   -8532.9034    625.92438   -9158.8277   0.16700377 
   22000    261.96654    53.593534    24465.274   -8517.6293    623.91712   -9141.5464   0.16403251 
   22050    253.68427    -98.31537    24449.589   -8553.4827    604.19151   -9157.6742   0.16076873 
   22100    264.76797     37.28664    24448.415   -8519.7981    630.58919   -9150.3873   0.16753433 
   22150    269.81714   -21.944915    24451.056   -8531.2076    642.61463   -9173.8223   0.15478592 
   22200    259.45806   -51.617103    24437.413   -8570.5687    617.94277   -9188.5115   0.16151185 
   22250    253.57967   0.66722512    24427.337   -8578.3241    603.94238   -9182.2664   0.15203182 
   22300    265.27389     5.729286    24423.463   -8567.9907    631.79414   -9199.7849   0.16243464 
   22350    260.46794    45.011941    24439.557   -8534.5333    620.34795   -9154.8812   0.15345902 
   22400    272.03541    24.473592    24461.364   -8484.6671    647.89783   -9132.5649   0.17158473 
   22450    269.83686   -84.943746    24475.126   -8493.4523    642.66162    -9136.114   0.16932979 
   22500    282.36028     84.03752    24471.885   -8497.8368    672.48823   -9170.3251   0.16159573 
   22550    284.58217   -21.131315    24456.382   -8504.4553    677.78003   -9182.2353   0.15623083 
   22600    268.32878   -32.218109    24449.569   -8519.6197    639.06985   -9158.6895   0.17716886 
   22650     282.8085   -16.610947    24454.784   -8510.8721    673.55573   -9184.4278    0.1628642 
   22700    284.10181   -2.0450258    24467.454   -8527.8011    676.63598   -9204.4371   0.15131393 
   22750    271.68025    -62.36462    24458.927    -8522.307    647.05196   -9169.3589   0.16847003 
   22800    269.81737   -46.805742    24463.078   -8527.5624    642.61518   -9170.1776   0.15130624 
   22850    290.57319    47.707766     24468.65   -8493.1113    692.04865   -9185.1599   0.16337146 
   22900    266.69143   -58.281206    24467.421   -8512.7742    635.17023   -9147.9445   0.16347017 
   22950    264.49536   -78.277563    24467.944   -8528.9769    629.93994   -9158.9169   0.16801843 
   23000    260.39009   -48.363114    24466.499   -8535.0183    620.16254   -9155.1808   0.14783735 
   23050    269.18744     35.53452    24457.026   -8539.6501     641.1149    -9180.765   0.15350463 
   23100    275.54821    7.7018314    24458.167   -8535.2126    656.26414   -9191.4767   0.14641265 
   23150    266.58634   -112.95364    24458.564   -8516.7515    634.91995   -9151.6715   0.16947138 
   23200    278.63793    26.254043    24459.844    -8523.837    663.62283   -9187.4598   0.15421006 
   23250    274.66144    -128.5133    24460.629   -8491.6711    654.15215   -9145.8233   0.17251424 
   23300    280.03752   -11.700576    24466.782   -8491.4604    666.95619   -9158.4166   0.15296493 
   23350    275.72379    55.191588     24478.32   -8492.5886    656.68232    -9149.271   0.15897018 
   23400    277.19655   -3.7896218    24479.607   -8474.4193    660.18995   -9134.6092   0.17812909 
   23450    271.75389   -78.268561    24472.491   -8499.9271    647.22732   -9147.1544   0.15605091 
   23500    291.90968   -29.626558    24475.519   -8488.7236    695.23172   -9183.9553   0.15978537 
   23550     275.5233    41.628202    24467.053    -8497.319    656.20481   -9153.5238   0.15690953 
   23600    285.25912    115.33016    24485.084   -8444.5581     679.3923   -9123.9504   0.16537104 
   23650    277.03088   -59.613154    24497.054   -8468.5796    659.79536    -9128.375   0.17377415 
   23700    281.11551   -25.664321    24472.009   -8483.5889     669.5236   -9153.1125   0.16669368 
   23750    278.41781   -24.902997    24455.949    -8491.813    663.09858   -9154.9116   0.16213038 
   23800    273.30688   -77.104305    24462.871   -8483.0787    650.92604   -9134.0047   0.18297572 
   23850    285.26066   -5.1658271    24455.272   -8486.8859    679.39596   -9166.2819   0.16377982 
   23900    274.23989    91.976482    24442.886     -8533.42    653.14816   -9186.5681   0.15970422 
   23950    263.31714    18.612236     24448.62    -8523.753     627.1338   -9150.8868    0.1638618 
   24000    276.63957   -17.385612     24459.62    -8505.547    658.86339   -9164.4103   0.16206051 
   24050    274.75012    22.381452    24474.516   -8484.7316    654.36336   -9139.0949   0.17268081 
   24100    287.10862    18.116413    24465.012   -8480.2642    683.79719   -9164.0614    0.1609017 
   24150    283.43097   -31.859899    24467.493   -8489.9445    675.03824   -9164.9827   0.16653783 
   24200    290.43581    37.492088    24478.371   -8464.0214    691.72146   -9155.7428   0.15061045 
   24250    290.94824    22.675604    24475.961   -8502.3454    692.94189   -9195.2873   0.16655164 
   24300    263.41609   -63.490377    24456.523    -8541.179    627.36947   -9168.5485   0.16592222 
   24350     270.9945   -64.717781    24454.601   -8528.3145    645.41872   -9173.7332   0.17015575 
   24400    270.67723    36.057697     24438.79   -8529.2202    644.66309   -9173.8833   0.16144862 
   24450    266.34331   -54.014944    24439.552   -8524.1149    634.34113    -9158.456   0.16788126 
   24500    283.42108   -18.977801    24442.495   -8512.6281    675.01469   -9187.6428   0.16095111 
   24550    281.18266    65.931122    24432.416   -8527.6521    669.68352   -9197.3356   0.16570981 
   24600    252.19906   -139.85806    24424.472   -8547.6735    600.65424   -9148.3277   0.17393291 
   24650    261.44736   -29.995542    24429.135   -8570.8964    622.68061    -9193.577   0.15187376 
   24700    260.99924   -44.262579    24433.725   -8556.5501    621.61334   -9178.1634   0.17031896 
   24750    265.15918    33.270112     24434.45   -8551.6867    631.52092   -9183.2076   0.15082255 
   24800     274.5133    17.126571    24448.815   -8525.1764    653.79933   -9178.9757   0.16002358 
   24850    268.57104   -95.614205    24458.481   -8541.2594    639.64684   -9180.9063   0.15566653 
   24900    273.35898    41.777707    24466.671   -8521.2065    651.05013   -9172.2566   0.16359506 
   24950    261.67878   -88.195613     24455.43    -8541.432    623.23178   -9164.6638   0.15728192 
   25000    266.30728     44.38122    24449.102   -8557.4801    634.25532   -9191.7355   0.15474253 
   25050      283.438     94.04994    24459.971    -8523.244    675.05501    -9198.299   0.14507785 
   25100    267.55229   -67.223419    24450.866   -8559.6962    637.22051   -9196.9168   0.15882301 
   25150    267.83506   -55.875054     24448.36    -8559.451    637.89398   -9197.3449   0.15421202 
   25200     268.6376    2.5006436    24449.986   -8574.5816    639.80538    -9214.387   0.14939778 
   25250    258.78378    59.676426    24431.358   -8590.0539    616.33684   -9206.3907   0.14913311 
   25300    267.45465    47.818658    24437.661   -8566.2439    636.98797   -9203.2319   0.14746285 
   25350    264.47679   -13.921788    24441.596   -8545.5302    629.89571   -9175.4259   0.16455609 
   25400    278.20327    -23.12501    24458.661   -8506.7989    662.58762   -9169.3865   0.16383864 
   25450    276.28061     33.18832     24448.02   -8521.8938    658.00846   -9179.9022   0.15941871 
   25500    273.52806   -44.527293      24446.1    -8510.165    651.45283   -9161.6179   0.17067945 
   25550    269.74904   -61.447407     24461.45   -8490.0852    642.45245   -9132.5377   0.16855072 
   25600    261.08917   -7.7226232    24464.475   -8526.8807    621.82753   -9148.7083   0.15891261 
   25650     283.9183    39.463144    24470.237   -8468.2466    676.19892   -9144.4455    0.1765633 
   25700    284.47041    82.460249    24469.404   -8495.1949    677.51386   -9172.7088   0.14617637 
   25750    278.75397    66.960017    24470.597    -8510.035    663.89921   -9173.9342   0.16908654 
   25800    274.06134   -12.640102    24464.904   -8525.1496     652.7229   -9177.8725   0.16019953 
   25850    282.21991     58.38028    24476.345    -8482.386    672.15391     -9154.54   0.16820361 
   25900      290.791    94.104535    24482.696    -8456.339     692.5674   -9148.9064   0.16692681 
   25950     276.7041    9.7318071    24492.136   -8471.5243     659.0171   -9130.5414   0.17718876 
   26000    278.56257    93.439845    24471.376   -8500.7144    663.44334   -9164.1578   0.16175348 
   26050    270.61763    -48.04822    24459.338   -8516.2973    644.52113   -9160.8184   0.17112665 
   26100    277.27036    64.611087    24456.412   -8507.0547    660.36574   -9167.4204    0.1665643 
   26150    275.28454    112.88469    24472.914   -8510.2011    655.63617   -9165.8372   0.15344715 
   26200    267.56521    29.318717    24485.666   -8506.2102    637.25129   -9143.4615   0.16282983 
   26250    267.31889    22.297868    24470.055   -8524.5922    636.66464   -9161.2568   0.16179606 
   26300    271.82923    24.828948    24449.906   -8533.0219    647.40677   -9180.4286   0.16625325 
   26350    267.20817   -45.933009    24444.332   -8558.9142    636.40093   -9195.3151   0.15748096 
   26400    271.89716    89.061517    24462.309   -8539.3916    647.56856   -9186.9601   0.15338499 
   26450    266.64952    42.930075    24452.977   -8539.1981    635.07043   -9174.2685   0.16166335 
   26500    271.37858    95.548795    24460.068    -8501.431    646.33347   -9147.7644   0.16549337 
   26550    268.56944   -37.056522    24461.164   -8499.4125    639.64302   -9139.0555    0.1797317 
   26600    274.40611   -36.502724    24469.114   -8506.4041    653.54404   -9159.9481   0.17020262 
   26650    276.99641    171.17523    24472.653   -8486.5572    659.71326   -9146.2705   0.15128288 
   26700    276.33102   -1.1168575      24460.4   -8497.4908    658.12853   -9155.6194   0.17525352 
   26750    283.46564    117.30773    24475.283   -8468.5883    675.12082   -9143.7091    0.1723127 
   26800    272.94453   -60.665654    24467.046   -8495.6732    650.06305   -9145.7363   0.17998034 
   26850    267.93785   -42.523265    24465.052    -8509.095    638.13879   -9147.2338   0.17778316 
   26900    270.61038   -14.281968    24455.503    -8511.904    644.50387   -9156.4078   0.17198346 
   26950    283.71199    20.542975    24466.216   -8433.8872    675.70756   -9109.5948   0.19473367 
   27000    268.23225   -50.972632    24474.909   -8471.4988    638.83997   -9110.3388   0.18498881 
   27050    276.49889    20.590207    24477.696   -8493.2316    658.52834     -9151.76   0.17074669 
   27100     281.0058   -22.987993    24469.134   -8499.4844     669.2623   -9168.7467   0.16313967 
   27150    269.86858   -94.882386    24454.548   -8485.8377    642.73715   -9128.5748   0.17879683 
   27200    270.80839   -10.525066    24460.478   -8489.9684    644.97547   -9134.9439   0.17553927 
   27250    267.92135   -64.460421    24463.801   -8505.2713    638.09951   -9143.3708   0.17673374 
   27300    282.11761    43.837566    24454.819   -8484.2058    671.91027   -9156.1161   0.15895966 
   27350    271.04055    57.361713    24470.168   -8455.7403    645.52839   -9101.2687    0.1847899 
   27400    266.96068   -60.183106     24461.34   -8470.4394     635.8115   -9106.2509   0.18555952 
   27450     263.6038   -69.706061    24462.158   -8494.3821    627.81654   -9122.1986   0.18815002 
   27500    275.76458   -80.304198    24448.531   -8507.3938    656.77945   -9164.1732   0.17276905 
   27550    275.65186   -41.634773    24440.771   -8531.4527      656.511   -9187.9637   0.17501289 
   27600    279.31361   -18.040841    24427.053   -8545.6078    665.23207   -9210.8399   0.16108416 
   27650    270.95488    3.5209379    24428.631   -8547.3604    645.32437   -9192.6847   0.15787051 
   27700    266.05071   -38.646374     24431.12   -8513.5204    633.64426   -9147.1646   0.17153176 
   27750    282.72462    164.47077    24437.549   -8502.2301    673.35596   -9175.5861   0.16936653 
   27800    276.06662    33.178286    24455.823   -8474.2316    657.49883   -9131.7304    0.1662406 
   27850    284.06267    65.611518    24454.653    -8500.131    676.54275   -9176.6737   0.15828605 
   27900    276.54828    58.695047    24448.058   -8518.7355    658.64596   -9177.3815   0.17482112 
   27950    269.75712    102.53283    24442.758   -8541.2305    642.47169   -9183.7022   0.15322323 
   28000    268.48206   -51.751655    24463.349   -8509.4244    639.43493   -9148.8594   0.17731904 
   28050    270.70265    29.385292    24463.095   -8528.0573    644.72364    -9172.781   0.15384851 
   28100    270.50991   -46.302243    24464.577   -8539.0096     644.2646   -9183.2742   0.16256462 
   28150    280.11157    46.970149    24474.854   -8523.3433    667.13255   -9190.4759   0.15651847 
   28200    270.01782    6.5448533    24477.914   -8506.6378    643.09259   -9149.7304   0.16615272 
   28250    277.46504    10.457288    24470.603   -8524.3712    660.82939   -9185.2006   0.14988628 
   28300    271.61038    39.839394    24474.623   -8521.4114    646.88554   -9168.2969   0.15484937 
   28350    265.14348    159.19518     24472.82   -8521.8076    631.48354   -9153.2911    0.1540441 
   28400    275.21101   -33.485756    24468.564   -8508.7145    655.46104   -9164.1755   0.16856256 
   28450    270.95715   -12.902306    24463.584   -8529.4073    645.32975    -9174.737   0.15913258 
   28500    276.18333    43.492435    24460.979   -8516.4817    657.77679   -9174.2584   0.16067701 
   28550    263.53978    2.7413044    24459.802   -8539.1996    627.66406   -9166.8637     0.172037 
   28600    269.53713    60.760151    24459.164   -8534.4489    641.94776   -9176.3966   0.15567945 
   28650      267.877   -20.865324    24457.263   -8540.2495    637.99388   -9178.2433   0.17698777 
   28700    265.94389   -97.039274    24463.377   -8533.3518    633.38985   -9166.7417   0.17027464 
   28750    276.92426    54.988488    24463.981   -8525.1621    659.54144   -9184.7035   0.16224254 
   28800    270.27834   -92.483828    24468.076   -8545.0694    643.71306   -9188.7825   0.17150457 
   28850    258.95741   -70.713611    24450.421   -8541.3827    616.75037    -9158.133   0.16874291 
   28900    271.79134   -41.107567    24454.894   -8537.8538    647.31652   -9185.1704    0.1664915 
   28950    267.75948   -1.8922636    24455.428   -8535.7616    637.71398   -9173.4755   0.16870299 
   29000    275.54652   -71.950154    24459.082   -8523.6173    656.26013   -9179.8774   0.16102868 
   29050    280.97529   -28.114961    24460.599   -8504.2149    669.18965   -9173.4046   0.17407448 
   29100    283.71953    18.799168     24465.46   -8507.8231     675.7255   -9183.5486   0.17307442 
   29150    270.50614    1.9828785    24472.508    -8493.916    644.25562   -9138.1717   0.16774482 
   29200    275.99313    88.258349    24468.071   -8493.1934     657.3238   -9150.5172   0.18418359 
   29250    279.89605   -27.805129    24479.835   -8469.4869    666.61924   -9136.1061   0.17594665 
   29300    279.69297   -29.578125    24480.042   -8508.5317    666.13557   -9174.6673   0.16910491 
   29350    267.56589   -98.909032    24468.415   -8515.1133    637.25291   -9152.3662   0.17731136 
   29400    277.99632    71.248927    24468.477   -8507.6118    662.09473   -9169.7065   0.15897193 
   29450    268.56897   -22.214233    24464.247   -8505.6463    639.64191   -9145.2882   0.17222904 
   29500    276.66149    43.387042    24473.295   -8490.4836    658.91562   -9149.3992   0.16507255 
   29550    271.58431    53.045967    24461.443   -8508.3279    646.82344   -9155.1513   0.16438471 
   29600    270.35672    122.23537    24455.332   -8533.6031    643.89975   -9177.5029    0.1579071 
   29650    276.21492    13.446012    24465.383   -8505.5577    657.85202   -9163.4097   0.16194847 
   29700    278.02167    88.755201    24468.615   -8473.2608    662.15509   -9135.4159    0.1677981 
   29750    270.72936    18.205534    24465.908   -8510.5311    644.78725   -9155.3184   0.17340632 
   29800    286.93671    55.741228    24455.686   -8535.8792    683.38775    -9219.267   0.14531961 
   29850     265.9863    66.852761    24439.681   -8558.2495    633.49086   -9191.7403   0.16046365 
   29900    270.04583    78.716535    24450.812   -8531.3039    643.15932   -9174.4632   0.15708544 
   29950    267.36805    8.7968391    24449.988   -8535.6736    636.78171   -9172.4553   0.15561613 
   30000    265.90731    14.569494    24452.915   -8541.0697    633.30272   -9174.3724   0.16777429 
   30050    272.50023     27.73734    24442.245    -8581.206    649.00487   -9230.2108   0.14819006 
   30100    265.26898    67.725775     24435.34   -8568.5959    631.78243   -9200.3784   0.13987196 
   30150    267.31148    26.202374     24447.75   -8538.6683    636.64698   -9175.3152   0.16370468 
   30200    266.32684    59.689468    24442.049   -8547.7341    634.30191    -9182.036   0.15431552 
   30250    257.91127   -27.967125    24450.258   -8555.2348    614.25881   -9169.4936   0.16811423 
   30300    268.26441   -70.648245    24453.414    -8529.311    638.91655   -9168.2275   0.16057979 
   30350    261.57898    1.1392054    24453.226   -8559.9627    622.99409   -9182.9568   0.15643292 
   30400    271.36617    44.730293    24463.966   -8494.0999    646.30391   -9140.4038    0.1725785 
   30450     257.2461   -155.05206     24449.53   -8553.7832     612.6746   -9166.4578   0.16778588 
   30500    257.90288    27.726341    24435.753   -8591.0935    614.23884   -9205.3323   0.15667699 
   30550    249.37229    8.8668614    24428.681   -8601.7033    593.92181   -9195.6251   0.15806748 
   30600    266.23525    78.135064    24425.911   -8564.3667    634.08377   -9198.4505   0.15725324 
   30650    264.54425    -43.99243     24435.47   -8560.0913    630.05636   -9190.1477   0.16393001 
   30700     276.6746    66.417114    24446.493   -8515.0758    658.94682   -9174.0227   0.17060565 
   30750    269.04869  -0.25712105    24449.904   -8563.3315    640.78444   -9204.1159   0.14860656 
   30800    277.72354    6.2454389    24443.284   -8532.3766    661.44506   -9193.8217   0.16669582 
   30850    282.51334    34.103697    24446.376   -8522.2191    672.85276   -9195.0719   0.14991745 
   30900    275.07144   -16.797623    24445.492   -8503.6905    655.12864   -9158.8191   0.16818565 
   30950    274.89317   -95.006994    24459.967   -8491.5252    654.70406   -9146.2292   0.17933385 
   31000    281.80217    83.752122    24471.699   -8493.3498    671.15899   -9164.5088    0.1585946 
   31050    272.20223    44.005101    24466.857   -8502.3864    648.29512   -9150.6815   0.16688292 
   31100    269.28064   -18.545401    24463.544    -8487.573    641.33688   -9128.9099    0.1787708 
   31150    281.87851    78.122308    24464.319   -8507.4749     671.3408   -9178.8157   0.15844854 
   31200    276.66352    137.62631    24468.593   -8491.2833    658.92044   -9150.2038   0.16084949 
   31250    271.09702   -21.266613    24456.693   -8503.8149    645.66288   -9149.4778   0.17394096 
   31300    290.45544    62.103299    24474.885   -8476.4841     691.7682   -9168.2523   0.15685198 
   31350    285.96191    110.06422    24481.197   -8465.6989     681.0661   -9146.7651   0.17786513 
   31400    276.26754    20.011049    24489.603     -8476.06    657.97734   -9134.0374   0.16507639 
   31450    273.95371   -43.993567    24476.088   -8511.5309    652.46658   -9163.9975   0.17027039 
   31500    281.49017    61.873267    24468.053   -8519.2227    670.41591   -9189.6386   0.15563524 
   31550    272.26154    68.036638    24464.406   -8498.4356     648.4364    -9146.872   0.16710078 
   31600    281.88798   -59.299765    24474.538   -8490.5693    671.36337   -9161.9326     0.168328 
   31650    276.05332    27.476537    24463.457   -8514.6393    657.46715   -9172.1065   0.15703941 
   31700    279.74798    22.153794    24469.339   -8504.7238    666.26661   -9170.9904   0.16038053 
   31750    275.38771   -41.747229    24472.019   -8491.0375    655.88188   -9146.9193   0.17322792 
   31800    285.68128   -17.964748    24474.694   -8486.9414    680.39775   -9167.3392   0.16414138 
   31850    282.86165   -41.833648    24482.797   -8482.1416    673.68231   -9155.8239   0.16157227 
   31900    274.69566   -88.282347    24469.953   -8514.7272    654.23366   -9168.9608   0.16985806 
   31950    271.31356    32.649882    24462.182   -8522.1778    646.17862   -9168.3564   0.15086177 
   32000    263.58924   -7.8552137    24467.317   -8525.6272    627.78185    -9153.409   0.17297141 
   32050    266.58347    47.438593    24447.788   -8551.7296    634.91312   -9186.6427   0.15414492 
   32100    268.19418    12.490972    24456.256   -8520.8937    638.74929    -9159.643   0.16117624 
   32150    268.02875   -45.942774    24447.863   -8538.4261     638.3553   -9176.7814   0.16802585 
   32200    274.43481    30.458735    24436.805   -8533.1259    653.61239   -9186.7383   0.16800976 
   32250    271.65603   -4.8138841     24431.48   -8541.0214    646.99426   -9188.0157   0.16862912 
   32300    267.32041   -106.97996    24418.286   -8547.5327    636.66826    -9184.201    0.1679443 
   32350    270.36215   -95.218042    24419.932   -8552.7585    643.91267   -9196.6711   0.15818345 
   32400    270.88901   -20.040966    24430.546   -8498.8894    645.16748   -9144.0569   0.17709096 
   32450    263.98115    11.225364    24430.253   -8531.7167    628.71525   -9160.4319   0.17419049 
   32500    272.43155   -2.0414319    24421.796   -8558.4158    648.84129   -9207.2571   0.15681328 
   32550    273.43055   -2.1528271    24448.875   -8502.7389    651.22058   -9153.9595   0.17897171 
   32600    281.16293    48.874399    24457.316    -8497.396    669.63654   -9167.0325   0.15908516 
   32650    271.26698   -33.992416    24451.788   -8496.0501    646.06768   -9142.1178   0.17786606 
   32700    277.99906    57.213007    24471.396   -8494.8518    662.10124   -9156.9531   0.16848753 
   32750    274.07139    118.87756    24471.297   -8525.8566    652.74684   -9178.6034    0.1651765 
   32800    276.55928    5.3656015    24468.367   -8523.7305    658.67217   -9182.4027   0.15965175 
   32850    279.34982    81.907928    24476.001   -8479.9483    665.31832   -9145.2666    0.1643433 
   32900    278.90897   -2.9937271    24477.617    -8495.688    664.26835   -9159.9563   0.16373041 
   32950    266.62778    -97.31755    24459.965   -8508.9044    635.01865   -9143.9231    0.1810198 
   33000    266.09383   -20.111354    24452.151   -8518.5024    633.74694   -9152.2494   0.15545446 
   33050    267.78616  -0.24308322    24455.878   -8515.4457    637.77753   -9153.2232    0.1777378 
   33100    271.79129   -70.421007    24451.036   -8537.9411    647.31641   -9185.2575   0.16482811 
   33150     273.4116   -1.6210086    24445.756    -8522.017    651.17544   -9173.1925   0.16166055 
   33200    265.53417    29.745925    24457.972   -8522.1405    632.41402   -9154.5545   0.16840993 
   33250    271.47344   -69.202167    24467.028   -8538.5267    646.55939   -9185.0861   0.16411194 
   33300    258.40678    29.307165    24468.351   -8537.8093    615.43895   -9153.2483   0.16428746 
   33350    261.63653   0.30162434    24470.976   -8496.3854    623.13116   -9119.5165   0.17465768 
   33400    276.93041    10.637174    24467.096   -8515.0951    659.55609   -9174.6512   0.16391519 
   33450    269.66758   -25.875276    24462.955    -8543.577    642.25843   -9185.8355   0.15504932 
   33500    262.70755    30.432086    24457.223   -8552.5204    625.68197   -9178.2024   0.16739064 
   33550    266.34896   0.35656953    24440.542   -8559.3657    634.35458   -9193.7203    0.1621576 
   33600       268.38    -25.18364    24463.629   -8512.1731    639.19185   -9151.3649   0.17383703 
   33650    262.36518   -30.176183    24454.098   -8539.5694    624.86655    -9164.436   0.16013566 
   33700    276.82465    105.61964    24453.165   -8518.8991    659.30421   -9178.2033   0.15886462 
   33750    266.96001   -20.114061    24457.408   -8523.4637    635.80992   -9159.2736   0.17770501 
   33800      273.735   -42.834014    24463.282   -8511.5225    651.94567   -9163.4681   0.16942217 
   33850    279.48114   -23.624489    24470.204   -8475.2603    665.63107   -9140.8914   0.18051605 
   33900    274.79781     26.90079    24471.315   -8482.1379    654.47695   -9136.6149   0.17457214 
   33950    283.30518   -18.233491    24483.252   -8488.9226    674.73867   -9163.6613   0.16363927 
   34000    270.97994   -32.683988    24465.802   -8507.0728    645.38405   -9152.4568   0.17574325 
   34050    272.74791   -55.039314     24458.97   -8548.5491    649.59475   -9198.1438   0.16216333 
   34100    267.32096   -44.883132    24454.623   -8542.7212    636.66957   -9179.3908   0.16348343 
   34150    272.54439    28.328882    24441.183   -8528.2717    649.11004   -9177.3817   0.17413246 
   34200    279.11877   -84.056195    24441.659   -8528.5738    664.76804   -9193.3418   0.15868215 
   34250    271.79986  -0.41584731    24444.893   -8513.7314    647.33681   -9161.0682   0.17126151 
   34300    274.49807    115.60443    24456.361   -8513.2277    653.76307   -9166.9908    0.1757104 
   34350    268.00224    34.191966    24445.253   -8539.1313    638.29215   -9177.4235   0.16027053 
   34400    268.82552   -43.342133    24430.357   -8545.6031    640.25292    -9185.856   0.16604098 
   34450    277.18224    5.1488528    24439.433   -8530.5401    660.15585    -9190.696   0.17012448 
   34500    274.24446    17.644918    24444.583   -8525.8591    653.15904   -9179.0182   0.16545718 
   34550    282.88572    12.609652    24449.804   -8493.0145    673.73964   -9166.7542   0.16853356 
   34600    287.17631   -7.6766942    24468.493   -8440.6029    683.95841   -9124.5614   0.17834149 
   34650    278.94367   -19.487608    24470.492   -8458.2086    664.35099   -9122.5596   0.16984462 
   34700    261.42887   -47.737302    24441.399   -8499.2728    622.63658   -9121.9094   0.17615148 
   34750    270.09772    50.762441    24449.031   -8512.7481    643.28289    -9156.031   0.16427499 
   34800    271.39351    -19.21896    24456.016    -8520.643    646.36902    -9167.012   0.16043907 
   34850    278.08523    61.400203    24456.286   -8514.4874    662.30647   -9176.7939   0.15077278 
   34900    273.21308    41.840167    24459.355   -8506.9104    650.70264    -9157.613    0.1604233 
   34950    278.21395   -28.155011    24447.556   -8518.7922    662.61304   -9181.4053   0.17142726 
   35000    277.65693    154.39043    24458.959   -8503.6029     661.2864   -9164.8893   0.15606682 
   35050    269.93729    29.145666    24453.242   -8530.8994    642.90081   -9173.8002   0.15266436 
   35100    275.43781     -4.52404    24464.766   -8486.5197    656.00122   -9142.5209    0.1650306 
   35150    274.32311     20.21537    24477.104   -8499.1861    653.34637   -9152.5325   0.15731754 
   35200     270.4439   -8.5820153    24461.493   -8519.5543    644.10737   -9163.6617   0.17119306 
   35250    273.48779   -66.746617    24469.804   -8513.5049    651.35691   -9164.8618   0.17391657 
   35300    273.12522    50.457307    24468.041   -8519.7777    650.49339   -9170.2711   0.15258449 
   35350     264.6575    101.47379    24469.754   -8511.5488    630.32609   -9141.8749   0.16509127 
   35400      272.902     47.62564    24457.636   -8522.2683    649.96175     -9172.23     0.171371 
   35450    261.24468   -37.695213    24465.357   -8515.2389    622.19789   -9137.4367   0.18123757 
   35500    269.74665    6.1492383    24469.298   -8520.0855    642.44675   -9162.5323   0.16572119 
   35550    280.31997    76.301425    24458.164   -8527.4315    667.62888   -9195.0604   0.15393188 
   35600    279.35954    84.571372    24458.873   -8499.6204    665.34146   -9164.9619   0.16026514 
   35650    262.18287    33.386711    24458.244    -8505.864    624.43235   -9130.2964   0.18269004 
   35700    273.95294    6.9360745    24458.273   -8502.3053    652.46473     -9154.77   0.16519724 
   35750    280.87867    26.019334    24455.052   -8480.2737    668.95953   -9149.2333   0.17255364 
   35800    290.69847    59.985065    24470.768   -8464.2213    692.34701   -9156.5683   0.16918753 
   35850    284.15602    63.875608    24480.586   -8460.1459    676.76507   -9136.9109   0.17180112 
   35900    278.83145   -70.624637    24479.606   -8460.1367    664.08372   -9124.2205   0.18621645 
   35950    265.63996   -2.7080663    24476.148   -8488.5347    632.66598   -9121.2007   0.17880245 
   36000    271.56706   -36.467341    24465.913   -8526.2517    646.78236   -9173.0341   0.16966099 
   36050    270.40189    42.791792      24462.1   -8516.5485    644.00733   -9160.5559   0.16210887 
   36100    282.52858   -32.202893    24456.887   -8508.7982    672.88906   -9181.6873   0.16733993 
   36150    277.21398   -19.006277    24473.435   -8504.0365    660.23145   -9164.2679   0.16746528 
   36200    278.55015   -1.5574407    24467.966   -8502.3787    663.41376   -9165.7925   0.17212709 
   36250     268.8034   -103.91839    24458.975   -8517.8503    640.20025   -9158.0506   0.17495785 
   36300    259.63975   -72.899383    24446.112   -8566.8396    618.37548    -9185.215    0.1691855 
   36350    280.05549    58.335938    24450.421   -8511.9115    666.99899   -9178.9105   0.15001123 
   36400    270.25969   -51.796466     24446.03   -8540.8521    643.66864   -9184.5207   0.17100563 
   36450    274.78165   -47.929776     24458.44   -8509.6124    654.43845   -9164.0509   0.17089489 
   36500    272.92309   -70.973233     24468.21   -8507.4387    650.01198   -9157.4507   0.16532694 
   36550     281.8618    77.023379    24464.386   -8497.2013    671.30102   -9168.5024   0.16141904 
   36600    279.89063   -92.436677    24467.303   -8507.8626    666.60635    -9174.469   0.16739391 
   36650    271.19636    47.884713    24466.658   -8493.0045    645.89949    -9138.904   0.17122579 
   36700    273.88046    64.628364    24454.197   -8489.8772    652.29212   -9142.1693   0.16936242 
   36750     264.8426   -56.038209     24445.12   -8514.4833    630.76695   -9145.2502   0.17057817 
   36800     268.9415   -17.257222    24434.514    -8542.768    640.52917   -9183.2972   0.16102091 
   36850    271.01083    16.521626    24425.278   -8555.5321    645.45761   -9200.9897   0.15576207 
   36900    267.49356    -14.55604    24421.068   -8534.7061    637.08066   -9171.7867   0.16591984 
   36950    268.21678   -28.961796    24425.115   -8524.4704    638.80312   -9163.2735   0.18370217 
   37000    273.24034    78.551114    24434.261   -8535.5239    650.76757   -9186.2915   0.15263151 
   37050    275.04036    13.176778    24427.614   -8512.3707     655.0546   -9167.4253   0.17825588 
   37100    278.00344    9.7158978    24430.787   -8524.6722    662.11169   -9186.7839   0.16692335 
   37150     280.6412    112.87396    24446.441   -8508.9037    668.39395   -9177.2977   0.16134201 
   37200    277.24527    20.993543    24440.679    -8506.334    660.30598     -9166.64   0.16288104 
   37250    262.63643    32.029116    24449.146   -8517.9921    625.51258   -9143.5047   0.17201306 
   37300    262.64519    -153.8487     24438.26   -8544.8561    625.53344   -9170.3895   0.16335016 
   37350    280.86161    48.593471    24443.739   -8505.9147    668.91889   -9174.8336    0.1598704 
   37400    260.98246    85.913411    24439.239     -8522.64    621.57337   -9144.2134   0.17141148 
   37450    272.11347   -42.818739    24452.936   -8504.9064    648.08374   -9152.9902   0.17696391 
   37500    281.30028    21.407474    24450.354   -8522.7925    669.96366   -9192.7562    0.1652967 
   37550    273.31804    95.835083    24448.737   -8520.6057    650.95261   -9171.5584   0.17015151 
   37600    274.89025   -112.76624    24430.206   -8541.9859    654.69709   -9196.6829   0.17923363 
   37650    275.41234    25.978608    24443.543    -8519.062    655.94055   -9175.0025   0.16164647 
   37700    273.68656   -29.423697    24451.022   -8545.7915    651.83032   -9197.6219   0.16764243 
   37750    261.70969   -59.161609    24436.877   -8579.7297     623.3054   -9203.0351    0.1612606 
   37800    258.95336   -5.2551925    24433.321   -8573.7319    616.74072   -9190.4726   0.16611522 
   37850    275.39412   -82.118626    24437.299   -8564.9299    655.89715   -9220.8271   0.15526353 
   37900    263.95734   -22.835105    24437.216   -8560.5029    628.65854   -9189.1614   0.16684367 
   37950    260.09685    1.0064608    24441.023   -8537.7222    619.46414   -9157.1863   0.17033533 
   38000    269.20598   -3.3455494    24459.393   -8485.7968    641.15905   -9126.9558   0.18030416 
   38050    267.80277   -29.484293    24469.387   -8488.6334    637.81707   -9126.4505   0.17855332 
   38100    271.31164   -117.94322    24457.669    -8508.682    646.17404   -9154.8561   0.17753961 
   38150    282.92286   -74.675481     24463.32   -8500.1781    673.82811   -9174.0062   0.17490077 
   38200    280.06623     -77.0141    24459.475   -8485.3367    667.02456   -9152.3613   0.17653817 
   38250    263.03273   -33.298865    24435.075   -8520.5385    626.45642   -9146.9949   0.18216705 
   38300    272.76602    61.891517    24445.302   -8469.1666     649.6379   -9118.8045   0.18880026 
   38350    269.99589   -66.464176    24457.216   -8512.8058    643.04036   -9155.8461   0.17660121 
   38400    263.72271    -43.98898    24443.108   -8501.2186    628.09973   -9129.3184   0.17275649 
[...]
   90750    280.64352    90.923951    24471.725   -8499.5638    668.39948   -9167.9632   0.17101398 
   90800    279.91406    2.1129128     24470.03   -8511.0855    666.66214   -9177.7476   0.15548285 
   90850    274.13958   -3.4353007    24467.718   -8494.0175    652.90924   -9146.9267   0.17595071 
   90900    281.13584   -60.808278    24476.857   -8518.5301    669.57203   -9188.1022    0.1554808 
   90950    268.90996   -124.09498    24453.601    -8532.287    640.45404   -9172.7411   0.17541155 
   91000    264.13618   -1.6476241    24443.552   -8572.2441    629.08449   -9201.3286   0.15388207 
   91050    257.28311    -55.27717    24429.317   -8597.1591    612.76274   -9209.9219   0.15462083 
   91100    253.30678    6.8078804    24429.319   -8595.7634    603.29246   -9199.0559   0.16160722 
   91150    255.93918    53.019308    24423.229   -8569.6549    609.56195   -9179.2169   0.15191786 
   91200    267.33602   -32.053719    24436.113   -8557.6366    636.70544    -9194.342   0.16290019 
   91250    274.01136   -42.705394    24455.826   -8532.9464    652.60388   -9185.5503   0.15727679 
   91300    281.41567    41.542525    24453.017   -8516.5368    670.23849   -9186.7753   0.15718087 
   91350    277.05298    5.9687648    24451.149   -8519.7128    659.84801   -9179.5608   0.15896687 
   91400    279.43037   -88.372575    24461.116   -8505.0161    665.51016   -9170.5262   0.16909715 
   91450    281.91401     79.74047     24464.01   -8481.0475    671.42537   -9152.4729   0.15130942 
   91500    288.65523    41.881155    24478.047   -8426.4405    687.48069   -9113.9212   0.18088601 
   91550    284.62374    -123.2979    24479.268   -8476.0822    677.87902   -9153.9613   0.15479032 
   91600     275.2574   -82.338854    24470.745   -8488.4225    655.57154   -9143.9941   0.17046249 
   91650    273.71115   -10.793725    24458.791   -8514.5805    651.88888   -9166.4694   0.15838162 
   91700    278.62043   -3.0787538    24453.435   -8516.7712    663.58115   -9180.3524   0.15198784 
   91750    271.04727    22.856326    24454.171   -8495.6164    645.54439   -9141.1608   0.16989454 
   91800    267.57682    59.747488    24470.823   -8500.0288    637.27895   -9137.3077   0.16009134 
   91850    276.79532    36.536109    24477.042   -8489.8996    659.23435    -9149.134    0.1611289 
   91900    283.79185    50.363718     24471.43   -8476.2245    675.89776   -9152.1222   0.16353776 
   91950    275.22535    47.156385    24473.029   -8462.9452    655.49519   -9118.4404   0.16898845 
   92000    270.85601   -33.452933    24459.249   -8532.7808    645.08887   -9177.8697   0.15620725 
   92050    273.85318   -35.792155    24469.231   -8487.5197    652.22715   -9139.7468   0.18000994 
   92100    272.57631    2.0701046     24462.48   -8497.0594    649.18607   -9146.2455   0.15741574 
   92150    277.60522    31.483819    24460.403   -8486.2088    661.16326   -9147.3721   0.17474583 
   92200     262.9602    95.897822    24465.396   -8508.1397    626.28369   -9134.4234   0.15787326 
   92250    279.81397    49.081387    24469.892   -8471.8109    666.42376   -9138.2346   0.17418532 
   92300       277.51    -44.98628    24480.977   -8477.3708    660.93648   -9138.3073   0.17952038 
   92350    280.89783    28.170491    24469.931   -8499.4817    669.00516   -9168.4869    0.1532811 
   92400     273.8096    41.119563    24458.844   -8489.5126    652.12336   -9141.6359   0.17056321 
   92450     273.8834    15.274717     24453.86   -8497.4622    652.29911   -9149.7613   0.17163145 
   92500    282.05442    56.293422    24464.027   -8483.1418    671.75978   -9154.9016   0.16848268 
   92550    283.77789    58.917467    24477.541   -8482.1994     675.8645   -9158.0639   0.16177844 
   92600    285.63776    54.641687    24484.368   -8448.5411    680.29408   -9128.8352   0.17385632 
   92650    266.10447   -65.554303    24472.065   -8506.1567    633.77229    -9139.929   0.16236487 
   92700    269.75061    73.182442    24456.508   -8508.8972     642.4562   -9151.3534    0.1740669 
   92750    267.76718    4.3945219    24449.903   -8535.6375    637.73231   -9173.3698   0.15902407 
   92800    265.40184   -26.243895    24447.664   -8518.9851    632.09887    -9151.084   0.17492115 
   92850    273.76419   -14.145205    24450.623   -8537.9472    652.01521   -9189.9624   0.15635362 
   92900    269.21522   -31.577828     24444.11    -8545.524    641.18107    -9186.705   0.15758417 
   92950     264.8962   -27.270877    24437.012      -8540.7     630.8946   -9171.5946   0.16072261 
   93000    267.58068   -49.055268    24433.144   -8528.3549    637.28813    -9165.643   0.16191859 
   93050    270.68791    23.202746    24445.901   -8536.3212    644.68853   -9181.0098   0.15845946 
   93100       275.82    11.685983    24455.554   -8502.7813    656.91146   -9159.6927    0.1608027 
   93150    271.40682   -107.22069     24450.46    -8530.608    646.40074   -9177.0087   0.16204112 
   93200    271.44969   -16.618531    24431.461    -8538.773    646.50282   -9185.2759   0.15198373 
   93250    276.14632    21.083257    24435.419   -8537.0992    657.68864   -9194.7879    0.1572886 
   93300    268.26394    109.14538    24417.337     -8538.93    638.91544   -9177.8454   0.14839387 
   93350     258.5123   -47.868668    24416.416   -8564.2423    615.69028   -9179.9326   0.16179572 
   93400    258.56548    9.3098548    24424.296   -8570.9447    615.81692   -9186.7616   0.15043987 
   93450    267.78037    22.519162    24425.898   -8562.4635    637.76373   -9200.2273   0.15654101 
   93500    267.27658    101.75871    24435.002   -8556.8283    636.56387   -9193.3922   0.14838601 
   93550    277.35657    75.707647    24447.964    -8519.679    660.57104   -9180.2501    0.1569858 
   93600    277.59735    68.742974     24450.02   -8522.5755     661.1445     -9183.72   0.15758015 
   93650    265.22327   -25.948972    24450.737    -8523.699    631.67358   -9155.3725   0.16874095 
   93700    271.11852   -15.576673    24460.365   -8544.4303     645.7141   -9190.1444   0.14970447 
   93750    257.84057    -49.05435    24442.835   -8548.3963    614.09044   -9162.4867   0.16789037 
   93800    271.49326    29.067086    24457.143   -8517.4267    646.60661   -9164.0333    0.1670693 
   93850    263.13571    28.313964    24443.045   -8560.9774    626.70171   -9187.6791   0.16289058 
   93900    260.68958   -25.001737    24449.195   -8555.7165    620.87583   -9176.5923   0.17129212 
   93950    274.42784    44.722918    24449.136   -8540.9102     653.5958    -9194.506   0.15409763 
   94000    271.67803    21.986385    24445.074   -8502.5503    647.04667    -9149.597   0.17651286 
   94050    274.85248   -56.913492    24461.949   -8493.5622    654.60714   -9148.1693   0.18072426 
   94100    274.90682    55.727023    24467.991    -8476.505    654.73656   -9131.2415   0.17978061 
   94150    276.43708   -30.116677    24474.128   -8484.4321    658.38113   -9142.8133   0.16883877 
   94200     276.5076    9.1173556    24473.437   -8488.3082    658.54909   -9146.8573    0.1710144 
   94250    278.35556    49.232695    24481.017   -8503.0554    662.95031   -9166.0057   0.17715985 
   94300    280.80232    34.013589    24486.835   -8472.3078    668.77768   -9141.0855   0.17911855 
   94350    275.48528   -58.958737      24474.5   -8510.9193    656.11426   -9167.0336   0.15948043 
   94400    287.98786    37.722626    24465.157   -8467.1183    685.89125   -9153.0095   0.16333071 
   94450     286.5274   -19.479607    24480.825   -8457.9985    682.41291   -9140.4114   0.17519725 
   94500    281.68186   -53.564917    24490.472   -8477.9752    670.87245   -9148.8476   0.15855042 
   94550    271.94721   -12.468214    24489.286   -8511.4444    647.68775   -9159.1322   0.16344919 
   94600    280.70887   -41.764834    24484.181   -8507.6315    668.55513   -9176.1866   0.14681918 
   94650    271.69103   -78.076539    24478.135   -8526.4833    647.07762    -9173.561   0.16295579 
   94700     269.7622   -41.795048    24465.836   -8527.7594    642.48379   -9170.2431   0.15864178 
   94750    271.17029    48.647354    24474.316   -8524.8531     645.8374   -9170.6905   0.16519771 
   94800    265.62077    93.797563      24470.7   -8512.8322    632.62028   -9145.4524   0.15332641 
   94850    274.16043    82.112997    24484.409   -8544.9471     652.9589    -9197.906   0.15377544 
   94900    264.47061   -41.043427    24469.686   -8541.5586    629.88098   -9171.4396   0.15461563 
   94950    269.60698    27.567899    24460.344   -8518.3628    642.11411   -9160.4769   0.15840812 
   95000    272.09089   -16.448011    24468.887   -8541.1383    648.02996   -9189.1683   0.15520654 
   95050    275.59349    72.032822    24469.346    -8526.052    656.37198    -9182.424   0.15213388 
   95100    280.07049   -18.117704    24482.869   -8490.3041    667.03472   -9157.3388    0.1617461 
   95150    275.53754   -18.794283    24462.443   -8522.6527    656.23872   -9178.8914   0.15419686 
   95200    271.72634    7.7364963     24464.71    -8515.367    647.16173   -9162.5287   0.16557796 
   95250    274.83203    3.8901884    24465.104   -8510.6137    654.55844   -9165.1722   0.16430294 
   95300    284.23608    41.907548    24470.332   -8496.1336    676.95575   -9173.0894   0.16601396 
   95350    268.83459    67.808973    24453.394    -8512.172    640.27453   -9152.4465   0.16143419 
   95400    265.56261    45.963025     24456.52   -8502.2149    632.48176   -9134.6967   0.17710139 
   95450    281.57875   -6.7801151    24463.369   -8488.5034    670.62689   -9159.1303   0.16084715 
   95500    285.20584    19.455274    24473.306   -8475.8535    679.26541   -9155.1189   0.17277905 
   95550    282.08105   -53.469352    24487.745   -8491.5235    671.82318   -9163.3467    0.1628007 
   95600    277.98142   -26.020142    24480.861   -8470.6704    662.05923   -9132.7296   0.17014809 
   95650    277.65618    23.033057    24473.918    -8511.822    661.28463   -9173.1066   0.16507344 
   95700    274.79321   -85.759919    24464.735   -8524.5581    654.46598    -9179.024   0.15717201 
   95750     277.5121   -17.097456    24457.469   -8505.3917    660.94148   -9166.3331     0.166366 
   95800    275.33473    2.9931629    24461.061   -8495.8972    655.75571   -9151.6529   0.15962456 
   95850    272.01274     -49.7204    24462.134   -8508.2087    647.84382   -9156.0525    0.1702326 
   95900    282.11246    50.871076    24466.295   -8499.5438    671.89799   -9171.4418   0.16030918 
   95950    288.59577    35.045512    24472.559   -8506.4692    687.33908   -9193.8083   0.16225173 
   96000     272.7637    63.875152    24477.122   -8481.8324    649.63237   -9131.4647   0.16097247 
   96050    282.17867    46.765213    24491.005   -8464.4805    672.05569   -9136.5362   0.17565012 
   96100     280.4769    40.654135     24488.45    -8474.094    668.00264   -9142.0967   0.16416196 
   96150    286.14182    64.115465    24491.691   -8480.9837    681.49459   -9162.4783   0.16019364 
   96200    273.69021    16.623224    24483.182   -8511.5391    651.83901   -9163.3781    0.1569353 
   96250    274.12845    11.377921    24469.759   -8515.6809    652.88275   -9168.5636   0.16283387 
   96300    280.09613   -32.696562    24472.781   -8513.8698    667.09578   -9180.9656   0.16061566 
   96350    283.48468   -47.127242    24475.064   -8518.0658    675.16616    -9193.232   0.15675027 
   96400    268.13425   -11.812772    24473.607   -8511.1666    638.60656   -9149.7732   0.16699145 
   96450    278.80481   -39.764741    24471.979   -8519.9482    664.02029   -9183.9685   0.15949373 
   96500    277.53791    98.505025    24476.569   -8495.1243    661.00295   -9156.1273    0.1660504 
   96550    265.44216     94.13943     24479.75   -8534.2031     632.1949    -9166.398   0.15681432 
   96600    261.29127    46.612406    24479.909   -8506.5604    622.30884   -9128.8692   0.17009891 
   96650    269.34931    51.794749    24476.364   -8528.3153    641.50043   -9169.8157   0.15168224 
   96700    267.05279   -38.226237     24475.47   -8519.0937    636.03088   -9155.1246   0.17123535 
   96750    273.45649   -22.038982    24467.826   -8493.6886    651.28236    -9144.971   0.16610366 
   96800    270.66472   -59.326389    24457.367   -8534.8582     644.6333   -9179.4915   0.16488827 
   96850    268.38085    68.804011    24449.245   -8502.5016    639.19388   -9141.6955   0.16341685 
   96900    281.03873    58.120161    24447.914   -8506.0245    669.34073   -9175.3652   0.15738311 
   96950    283.00613   -10.043203    24450.695   -8520.6929    674.02643   -9194.7193   0.15469849 
   97000    264.59112   -33.750997      24440.3   -8530.6762      630.168   -9160.8442   0.17130298 
   97050    274.10056    67.223089    24451.243   -8516.1355    652.81631   -9168.9518   0.16396464 
   97100    274.18353    42.164172    24462.836    -8510.981    653.01394   -9163.9949   0.16103114 
   97150     276.9043    84.462786    24469.579   -8481.6669    659.49389   -9141.1608   0.16854287 
   97200    282.10293    64.241949    24483.351   -8487.1599     671.8753   -9159.0352   0.17234586 
   97250    278.56156    40.089348    24495.476   -8461.8124    663.44093   -9125.2534   0.17596553 
   97300    271.64185   -75.275646    24501.402   -8479.8594    646.96048   -9126.8199   0.17953259 
   97350    268.23506    6.6036282    24483.256    -8510.853    638.84664   -9149.6996   0.16149533 
   97400    268.29417    4.8967197    24470.071   -8526.3824    638.98744   -9165.3698   0.16470722 
   97450    270.35382   -16.923288    24451.655   -8531.6163    643.89283   -9175.5092   0.17253099 
   97500    274.43563    51.112656    24477.327    -8516.621    653.61436   -9170.2353   0.15692483 
   97550    283.18756    32.364812    24485.358    -8487.769    674.45854   -9162.2276    0.1670367 
   97600     269.9096     -45.9984    24480.426   -8480.1303    642.83484   -9122.9652   0.17503572 
   97650    275.60215    40.169634    24496.993   -8487.9309    656.39262   -9144.3235   0.17528832 
   97700    272.29241   -8.6860403    24493.979   -8482.0317    648.50992   -9130.5416   0.18645133 
   97750    274.24334    36.443138    24491.638   -8498.6742    653.15638   -9151.8306   0.16230492 
   97800    270.90805   -20.978442    24490.764   -8502.1376    645.21282   -9147.3504   0.16920459 
   97850    269.30416    28.975934    24490.347   -8496.1819     641.3929   -9137.5748   0.16558942 
   97900    276.43731   -58.765123     24492.64   -8493.9396    658.38168   -9152.3212   0.17103886 
   97950     266.1807   -103.94157    24478.239   -8528.9876    633.95384   -9162.9414   0.17387835 
   98000    261.92363    -88.25706     24481.06   -8538.2224    623.81492   -9162.0373   0.16561728 
   98050    269.41178    48.708088    24471.231   -8527.5784    641.64921   -9169.2276    0.1606451 
   98100    259.86377   -23.274297    24465.283   -8540.7289    618.90903    -9159.638   0.16864433 
   98150    279.95724    3.6612588    24457.062   -8531.6255    666.76498   -9198.3904   0.15390382 
   98200    278.44926    28.616136    24453.998    -8512.571    663.17348   -9175.7445   0.17317684 
   98250    288.09581    5.7194994    24473.616   -8487.0119    686.14834   -9173.1602   0.16537223 
   98300    281.87199   -9.2621541     24486.31   -8511.2616    671.32529   -9182.5869   0.15817383 
   98350    260.13182   -90.849202     24465.65   -8522.6915    619.54743    -9142.239   0.17463458 
   98400    269.06466   -52.844689     24459.84    -8552.281    640.82248   -9193.1035   0.16096257 
   98450    269.70032   -4.2787099    24451.773    -8537.667    642.33641   -9180.0034   0.15868138 
   98500    266.77319     29.66776    24461.858   -8508.7303    635.36495   -9144.0953    0.1749115 
   98550    269.18846   0.52792933    24463.884   -8532.1881    641.11735   -9173.3055    0.1665843 
   98600    280.94317     -5.23764    24471.532   -8519.2599    669.11314    -9188.373   0.15618381 
   98650    270.43067   -33.663793    24469.799   -8506.2059    644.07585   -9150.2818   0.16949231 
   98700    283.15013    -39.62188    24476.853    -8483.344    674.36939   -9157.7134    0.1719954 
   98750    268.46801    17.207088    24472.904   -8507.4755    639.40147    -9146.877   0.17652757 
   98800    271.12734   -52.902965    24467.677   -8504.2895     645.7351   -9150.0246   0.16984436 
   98850    275.13258    59.432176    24458.538    -8520.199    655.27426   -9175.4732   0.16095264 
   98900    278.80332    58.553614    24457.911   -8520.8241    664.01673   -9184.8409   0.15763665 
   98950    275.39528    87.919052    24446.535   -8537.5154    655.89992   -9193.4153   0.16199496 
   99000    271.72404   -63.870535     24461.95   -8495.7296    647.15625   -9142.8858   0.17898686 
   99050    277.02908   -119.49491    24455.585   -8539.4957    659.79108   -9199.2868   0.16910721 
   99100    273.74476    12.459487    24440.045   -8520.1673    651.96894   -9172.1363   0.15993278 
   99150    266.43236    -65.75833    24455.668   -8511.0339    634.55321   -9145.5872   0.16725292 
   99200     284.7975    14.577366    24451.996   -8504.6198    678.29288   -9182.9126   0.17166677 
   99250    285.74307   -32.595386    24472.417   -8478.0565    680.54491   -9158.6014   0.17927254 
   99300    284.61808   -23.562585    24472.534   -8478.9179    677.86556   -9156.7834   0.16178364 
   99350    279.97198     8.795921    24473.774    -8485.087    666.80008    -9151.887    0.1672232 
   99400    282.08775    74.136454    24457.711   -8480.7691    671.83915   -9152.6083   0.17211684 
   99450     278.6263   -29.948917    24474.876   -8473.2861    663.59512   -9136.8812   0.17213727 
   99500    280.24948    34.167758      24463.6   -8491.8501      667.461   -9159.3111    0.1753653 
   99550    273.14444   -38.168224    24454.775   -8490.0672    650.53916   -9140.6064   0.17914684 
   99600    274.35865    24.946401    24462.744   -8510.9053      653.431   -9164.3363   0.16361579 
   99650    269.55222    -31.01836     24449.19   -8516.6548    641.98369   -9158.6385   0.16705317 
   99700    271.64903   -37.765426    24443.173   -8518.5647     646.9776   -9165.5423   0.17713012 
   99750    267.48959   -128.82912    24444.561   -8510.8088    637.07118     -9147.88   0.17970046 
   99800    268.20746    17.290175    24451.832   -8519.5334    638.78091   -9158.3143   0.15869383 
   99850     264.2925   -80.676366     24444.25   -8517.3914    629.45678   -9146.8482   0.17271079 
   99900    268.28578     -24.6825    24434.975   -8531.6583    638.96746   -9170.6258   0.17060993 
   99950    275.78028   -10.878741    24448.469    -8505.413    656.81686   -9162.2299   0.16572389 
  100000     283.8248    6.0247946    24456.888   -8519.0513    675.97622   -9195.0275   0.16290294 
Loop time of 31.3909 on 10 procs for 100000 steps with 800 atoms

Performance: 2752.391 ns/day, 0.009 hours/ns, 3185.637 timesteps/s
98.9% CPU use with 10 MPI tasks x no OpenMP threads

MPI task timing breakdown:
Section |  min time  |  avg time  |  max time  |%varavg| %total
---------------------------------------------------------------
Pair    | 20.325     | 22.035     | 23.038     |  16.0 | 70.20
Neigh   | 1.6186     | 1.7546     | 1.8151     |   4.3 |  5.59
Comm    | 4.788      | 5.8348     | 7.7118     |  33.3 | 18.59
Output  | 0.062132   | 0.066229   | 0.096998   |   4.0 |  0.21
Modify  | 1.2521     | 1.2877     | 1.3148     |   1.7 |  4.10
Other   |            | 0.4122     |            |       |  1.31

Nlocal:    80 ave 95 max 73 min
Histogram: 2 2 1 2 2 0 0 0 0 1
Nghost:    587.2 ave 611 max 568 min
Histogram: 1 2 1 0 2 1 1 0 0 2
Neighs:    0 ave 0 max 0 min
Histogram: 10 0 0 0 0 0 0 0 0 0
FullNghs:  2532 ave 3015 max 2291 min
Histogram: 1 3 1 2 2 0 0 0 0 1

Total # of neighbors = 25320
Ave neighs/atom = 31.65
Neighbor list builds = 11005
Dangerous builds = 0

# Create data file for import to other simulations
#
write_data          data.ice_box


Total wall time: 0:00:31
