
# Create simulation box of size ~50 x 30 x 30 Angstrom
#
lattice	            sc 1
Lattice spacing in x,y,z = 1 1 1
region 	            all block 0 ${LEN} 0 ${WIDTH} 0 ${WIDTH} units box
region 	            all block 0 50.0292181887708 0 ${WIDTH} 0 ${WIDTH} units box
region 	            all block 0 50.0292181887708 0 31.2682613679801 0 ${WIDTH} units box
region 	            all block 0 50.0292181887708 0 31.2682613679801 0 31.2682613679801 units box
create_box          1 all
Created orthogonal box = (0 0 0) to (50.0292 31.2683 31.2683)
  5 by 1 by 2 MPI processor grid

# fill box with randomly distributed atoms
#
create_atoms        1 random 1565 63782 all
Created 1565 atoms
  Time spent = 0.000541449 secs
mass                1 18.015
group               water region all
1565 atoms in group water

# Define potential
#
pair_style          sw
pair_coeff          * * mW_real.sw mW
Reading potential file mW_real.sw with DATE: 2019-02-27

# Run minimization
#
minimize            1.0e-8 1.0e-8 10000 1000
WARNING: Using 'neigh_modify every 1 delay 0 check yes' setting during minimization (../min.cpp:168)
Neighbor list info ...
  update every 1 steps, delay 0 steps, check yes
  max neighbors/atom: 2000, page size: 100000
  master list distance cutoff = 6.3065
  ghost atom cutoff = 6.3065
  binsize = 3.15325, bins = 16 10 10
  1 neighbor lists, perpetual/occasional/extra = 1 0 0
  (1) pair sw, perpetual
      attributes: full, newton on
      pair build: full/bin/atomonly
      stencil: full/bin/3d
      bin: standard
Per MPI rank memory allocation (min/avg/max) = 4.204 | 4.205 | 4.206 Mbytes
Step Temp E_pair E_mol TotEng Press 
       0            0    7174707.6            0    7174707.6     13565897 
     642            0    -17536.49            0    -17536.49   -1303.1762 
Loop time of 0.849751 on 10 procs for 642 steps with 1565 atoms

98.8% CPU use with 10 MPI tasks x no OpenMP threads

Minimization stats:
  Stopping criterion = max force evaluations
  Energy initial, next-to-last, final = 
         7174707.55857     -17536.4147021     -17536.4902714
  Force two-norm initial, final = 3.88011e+08 1.8042
  Force max component initial, final = 2.18364e+08 0.367645
  Final line search alpha, max atom move = 0.0761148 0.0279832
  Iterations, force evaluations = 642 1000

MPI task timing breakdown:
Section |  min time  |  avg time  |  max time  |%varavg| %total
---------------------------------------------------------------
Pair    | 0.50105    | 0.65261    | 0.78187    |   9.9 | 76.80
Neigh   | 0.007668   | 0.0090807  | 0.010177   |   0.9 |  1.07
Comm    | 0.038698   | 0.14297    | 0.30033    |  19.9 | 16.83
Output  | 0          | 0          | 0          |   0.0 |  0.00
Modify  | 0          | 0          | 0          |   0.0 |  0.00
Other   |            | 0.04509    |            |       |  5.31

Nlocal:    156.5 ave 169 max 140 min
Histogram: 1 0 1 0 1 1 3 1 1 1
Nghost:    745.5 ave 785 max 704 min
Histogram: 2 1 1 0 0 1 1 1 2 1
Neighs:    0 ave 0 max 0 min
Histogram: 10 0 0 0 0 0 0 0 0 0
FullNghs:  4952 ave 5570 max 4087 min
Histogram: 1 0 1 1 0 1 1 3 1 1

Total # of neighbors = 49520
Ave neighs/atom = 31.6422
Neighbor list builds = 30
Dangerous builds = 0

# Add velocity/set timestep
#
velocity            all create ${TEMP} 120598 rot yes dist gaussian
velocity            all create 280 120598 rot yes dist gaussian
timestep            10.0

# Define output
#
compute	            1 all msd
thermo	            50
thermo_style        custom step temp press vol etotal ke pe c_1[4]

# Neighbor lists
#
neigh_modify        delay 0 every 1 check yes

# Set fixes
#
fix                 1 all momentum 10 linear 1 1 1 rescale
fix                 2 all nve
fix                 3 all temp/csvr ${TEMP} ${TEMP} 500.0 928347
fix                 3 all temp/csvr 280 ${TEMP} 500.0 928347
fix                 3 all temp/csvr 280 280 500.0 928347
fix                 4 all press/berendsen iso ${PRES} ${PRES} 1000.0 modulus 20000
fix                 4 all press/berendsen iso 0 ${PRES} 1000.0 modulus 20000
fix                 4 all press/berendsen iso 0 0 1000.0 modulus 20000

# Run 1 ns equilibration
#
dump                1 all atom 1000 eq.water.${NAME}.dump
dump                1 all atom 1000 eq.water.setup_atoms_280K_00.dump
run                 100000
Per MPI rank memory allocation (min/avg/max) = 3.454 | 3.455 | 3.456 Mbytes
Step Temp Press Volume TotEng KinEng PotEng c_1[4] 
     642          280   -83.257877    48913.775   -16231.134    1305.3563    -17536.49            0 
     650    160.62196   -149.38674    49000.802   -16127.486    748.81747   -16876.303  0.094148873 
     700    195.63572    -284.7747    48907.154   -15606.957    912.05116   -16519.008    0.5816549 
     750    226.15054    -360.4187    48646.274   -15252.825    1054.3109   -16307.136    1.1400905 
     800    237.50807   -4.5421118    48334.824    -15112.56    1107.2595   -16219.819    1.7383898 
     850    259.84374   -63.105077    48088.594   -14962.325    1211.3881   -16173.713    2.4539159 
     900    264.58004   -272.85014    47851.759   -14905.415    1233.4687   -16138.884     3.287952 
     950    266.49691   -72.264868    47663.798   -14792.443    1242.4051   -16034.848    4.0826713 
    1000    262.19015   -87.939099    47479.584   -14723.762    1222.3271   -15946.089    5.1114941 
    1050    268.06415   -228.58381    47440.439   -14712.916    1249.7116   -15962.628    6.2770036 
    1100    275.58914    77.528266     47154.99   -14672.671     1284.793   -15957.464    7.4298465 
    1150    267.91133    423.63345    47021.527   -14710.226    1248.9991   -15959.226    8.6559509 
    1200    265.21825    71.112538    46969.377   -14753.709     1236.444   -15990.153    10.108842 
    1250    261.82788    29.083802    46932.058   -14729.436    1220.6382   -15950.074     11.27052 
    1300    269.19666    144.57814    46891.914   -14700.488    1254.9913    -15955.48    12.509668 
    1350    269.56981    267.99135    46807.703   -14673.652     1256.731   -15930.383    13.785801 
    1400    273.92971   -79.696758    46620.034   -14693.049    1277.0567   -15970.106    15.312208 
    1450    270.70603   -101.99357    46574.323   -14717.518     1262.028   -15979.546      17.0774 
    1500    273.54888   -342.41603    46474.541   -14671.071    1275.2813   -15946.352    18.466774 
    1550    286.36238   -121.85129    46576.337    -14622.83    1335.0177   -15957.848    20.197061 
    1600     279.3867   -49.391941    46578.619    -14570.33    1302.4971   -15872.828    22.172361 
    1650    282.06979   -120.63215    46600.296   -14577.501    1315.0057   -15892.507     24.15182 
    1700    271.29661   -186.14858    46592.412   -14589.349    1264.7812    -15854.13    26.029262 
    1750    277.74959    134.35403    46675.736   -14590.901     1294.865   -15885.766    27.738468 
    1800    276.49092    6.0997519    46768.165   -14637.252    1288.9971   -15926.249    29.074194 
    1850    280.74113    152.04876    46774.553   -14620.688    1308.8115     -15929.5    31.025698 
    1900    264.33223    251.14124    46879.821   -14650.401    1232.3134   -15882.715    32.482745 
    1950    278.26015    124.22372    46910.353   -14600.548    1297.2452   -15897.793    33.804774 
    2000    273.19648   -132.97668    46960.537   -14618.048    1273.6384   -15891.686    35.134134 
    2050     290.8952    -235.4706    46889.662   -14501.129    1356.1496   -15857.279     36.83923 
    2100    286.86538    90.994924    46800.863    -14508.71    1337.3627   -15846.073    38.254772 
    2150    284.66155    121.33582    46681.716   -14527.845    1327.0884   -15854.933     39.38838 
    2200    285.69096    187.16921    46842.195   -14561.832    1331.8875   -15893.719    41.070935 
    2250    279.04744   -176.18494    46796.538   -14571.864    1300.9155    -15872.78    42.956181 
    2300    295.14696   -418.72567    46792.799   -14558.493    1375.9713   -15934.464    44.152155 
    2350    280.15214    245.88186    46653.891   -14583.634    1306.0656   -15889.699    46.040748 
    2400    282.63897   -305.81534    46772.477   -14548.427    1317.6592   -15866.086    47.391508 
    2450     288.0295    -84.80895    46709.614   -14539.926    1342.7897   -15882.715    48.510044 
    2500    287.28852    152.32112    46882.136   -14490.313    1339.3353   -15829.649    49.662218 
    2550    279.90587   -16.707503    47033.201   -14480.198    1304.9175   -15785.115    51.578625 
    2600    285.64907   -70.833571    46956.324   -14484.329    1331.6922   -15816.021    53.239572 
    2650    293.65833   -100.29185    46959.042   -14485.557    1369.0313   -15854.588    55.340461 
    2700    280.37984    267.29377    46883.886   -14501.347    1307.1271   -15808.474    56.419219 
    2750    287.27337    119.08695    46968.776   -14490.524    1339.2647   -15829.789    57.567161 
    2800    291.75015   -254.30967    46963.078   -14470.472    1360.1354   -15830.608    59.096513 
    2850    287.05492   -67.610055    46873.482   -14509.453    1338.2463   -15847.699    60.567881 
    2900    284.71952   -237.65572    46882.629   -14550.063    1327.3587   -15877.421    62.017234 
    2950    283.40327   -191.10378    46903.225    -14581.75    1321.2223   -15902.973    64.120239 
    3000    277.54859    416.15999    46895.206   -14606.069    1293.9279   -15899.997    65.649405 
    3050    279.07842   -97.237347    46897.835   -14587.703      1301.06   -15888.763    66.898961 
    3100    283.13565     58.36063    46810.098   -14546.955    1319.9747    -15866.93    67.901922 
    3150    285.68404   -140.81572    46791.505   -14588.105    1331.8553    -15919.96    69.580713 
    3200     283.8815    -394.7292    46807.857   -14609.344    1323.4519   -15932.796    71.389524 
    3250    275.89657    63.048758    46788.214   -14627.474    1286.2262     -15913.7    72.505714 
    3300     277.5779   -150.73408    46816.354   -14594.444    1294.0645   -15888.508    74.045008 
    3350    282.95964    55.603991    46891.202   -14585.478    1319.1541   -15904.632    75.691603 
    3400    271.17429    114.22978    46945.987   -14597.428     1264.211   -15861.639    77.250993 
    3450    279.32644    106.58363    46911.336   -14576.756    1302.2162   -15878.972    78.777107 
    3500      274.531   -55.055807    46870.931   -14644.647    1279.8599   -15924.507    81.067207 
    3550    286.46775   -276.14175    46842.005   -14647.229    1335.5089   -15982.738    82.885683 
    3600    274.75864    -319.5342    46839.642   -14678.343    1280.9212   -15959.264    83.868117 
    3650    281.51174   -114.73989    46851.304   -14696.605     1312.404   -16009.009    85.431053 
    3700    266.89012   -63.861663    46779.358   -14697.931    1244.2383    -15942.17    86.260949 
    3750    275.42292   -105.81975    46633.485   -14646.492    1284.0181    -15930.51    87.932273 
    3800    277.10957   -244.12308    46706.089   -14643.052    1291.8812   -15934.933    89.709464 
    3850     270.1611   -13.404514     46741.23     -14666.3    1259.4875   -15925.788     91.14624 
    3900    268.12565    209.69291    46705.566   -14623.012    1249.9983   -15873.011    91.945815 
    3950    285.11987    154.01953    46899.284   -14559.276    1329.2251   -15888.501    93.343416 
    4000    276.93306     28.77317    46894.171   -14618.698    1291.0583   -15909.756    95.207516 
    4050    290.37023    48.279746    46760.961   -14594.512    1353.7022   -15948.215    96.806028 
    4100    276.98889   -58.461024    46893.874   -14610.313    1291.3186   -15901.632    98.667837 
    4150    267.67089   -198.68507    46832.223    -14584.26    1247.8782   -15832.138    100.61879 
    4200    282.41645    410.33014    46723.986    -14615.94    1316.6218   -15932.562    101.36153 
    4250    273.68743   -50.722101    46503.769   -14617.044    1275.9272   -15892.972    102.33788 
    4300    272.23999    241.74276    46547.431   -14616.115    1269.1793   -15885.295    104.16597 
    4350    281.52345     156.7055    46616.993   -14606.702    1312.4586   -15919.161    105.89662 
    4400    280.35946   -32.950848    46586.104   -14611.195    1307.0321   -15918.227    106.95411 
    4450    279.02964    -57.71549    46622.515   -14596.874    1300.8325   -15897.706    108.57193 
    4500    273.50251   -170.52371    46644.964   -14608.253    1275.0651   -15883.318    110.06705 
    4550      266.575   -273.84766    46622.356   -14636.923    1242.7692   -15879.692      111.508 
    4600    275.33733   -239.28272    46468.436   -14653.611     1283.619    -15937.23    112.45654 
    4650    266.87093    249.87832    46477.702   -14636.172    1244.1488   -15880.321    113.66885 
    4700    284.76971    353.82795    46657.007   -14546.812    1327.5927   -15874.404    115.45265 
    4750    286.12403    131.25111    46817.571   -14570.809    1333.9065   -15904.716    116.50299 
    4800    284.19801    127.62106    46786.564   -14604.819    1324.9274   -15929.747    118.31823 
    4850     288.9857   -8.7260405    46885.215    -14491.64    1347.2475   -15838.888    120.04622 
    4900    282.95038   -67.114853     46874.21    -14505.14     1319.111   -15824.251    121.19396 
    4950    288.57904     195.4239    46850.155   -14446.102    1345.3517   -15791.454    122.70715 
    5000      285.386    7.0703741     46883.97   -14485.684    1330.4658    -15816.15    123.99924 
    5050     290.3956   -136.75237    46868.948   -14482.326    1353.8205   -15836.146    125.11071 
    5100    278.55429   -107.46087    46876.194    -14558.62    1298.6165   -15857.236    126.46389 
    5150    281.08379    -417.1712     46738.35   -14578.228     1310.409   -15888.637    127.60182 
    5200    277.59566    66.111274    46750.165   -14620.099    1294.1473   -15914.246    129.36386 
    5250    283.16436    -62.09288    46851.894   -14587.562    1320.1086    -15907.67    131.07342 
    5300    280.34768   -283.82042     46743.83   -14578.131    1306.9772   -15885.109    132.77551 
    5350    275.04083    235.64661    46691.566   -14591.842    1282.2368   -15874.079    134.14992 
    5400    277.74737    22.705315     46766.13   -14602.702    1294.8546   -15897.557    135.67665 
    5450     276.4289    118.24473    46719.427   -14580.367    1288.7079   -15869.075    136.71688 
    5500    275.56313    127.72184    46798.916   -14602.992    1284.6717   -15887.664    138.39705 
    5550    271.82839   -158.35825    46783.721   -14622.368    1267.2604   -15889.629    140.25778 
    5600    278.27381    -171.0941     46726.46   -14614.729    1297.3089   -15912.038    142.06376 
    5650    271.71319   -220.26977    46692.164     -14645.2    1266.7233   -15911.923    144.02433 
    5700    278.78379   -125.96038    46820.636   -14595.581    1299.6864   -15895.268    145.20229 
    5750    276.48927    -57.17467    46777.885    -14627.39    1288.9893   -15916.379    145.89715 
    5800    281.79653    -57.16688    46717.533   -14616.447    1313.7317   -15930.179    147.35852 
    5850     280.1031    253.99278    46708.951   -14632.299     1305.837   -15938.136    149.11601 
    5900    275.86428   -263.50739     46670.23   -14661.142    1286.0756   -15947.217    150.32827 
    5950     274.6218      35.0752    46853.653   -14684.637    1280.2832    -15964.92    152.00557 
    6000    269.26772     149.0606    47059.044    -14668.03    1255.3226   -15923.352    154.59895 
    6050    281.14279   -170.38145    47011.127   -14618.979     1310.684   -15929.663    156.14691 
    6100    287.72125   -139.39806    46877.327    -14583.34    1341.3527   -15924.693    158.22415 
    6150    281.20322    41.799969    46672.856   -14673.306    1310.9657   -15984.272    158.26208 
    6200    270.17138    75.959243    46880.496   -14650.132    1259.5354   -15909.668    160.83943 
    6250    271.02168   -377.55003    46814.997   -14678.034    1263.4995   -15941.533    162.87508 
    6300    278.35682    62.974037    46584.058   -14607.548    1297.6958   -15905.243    164.06825 
    6350     277.1064    43.441466     46705.06   -14622.761    1291.8664   -15914.628    165.75431 
    6400    287.93865     222.7078    46768.685   -14577.055    1342.3662   -15919.422    167.07021 
    6450     290.4618   -284.49196    46917.005   -14507.067    1354.1291   -15861.197    168.42647 
    6500    287.17847    -88.86153    46768.133   -14553.943    1338.8223   -15892.766    170.04557 
    6550    281.68529    252.16976    46759.077   -14600.713    1313.2131   -15913.926    171.93248 
    6600    270.54075   -59.948521    46743.449    -14642.11    1261.2574   -15903.367    172.93193 
    6650    274.03872    330.76074    46595.807   -14676.536    1277.5649   -15954.101    174.28056 
    6700    269.67952    12.003821    46789.788   -14678.502    1257.2424   -15935.744    175.69751 
    6750    281.67991    266.77671    46807.542   -14645.669    1313.1881   -15958.857    176.68444 
    6800    287.35593   -41.616627    46950.694   -14597.023    1339.6496   -15936.672    178.64275 
    6850    276.41164   -261.73111    46814.272   -14619.597    1288.6275   -15908.224    180.08406 
    6900    283.45232   -83.328991    47095.564    -14549.24     1321.451   -15870.691    182.22024 
    6950    277.29623    212.01719    47002.776   -14568.327    1292.7514   -15861.079    183.58935 
    7000    284.28451    245.26753    46846.274   -14565.512    1325.3307   -15890.842    184.62759 
    7050    276.68709   -60.673706     46918.66   -14592.548    1289.9116   -15882.459    186.00602 
    7100    283.97738   -263.29041    46821.385   -14584.813    1323.8988   -15908.712    187.19709 
    7150    280.65266   -11.871787    46859.177   -14597.701     1308.399     -15906.1    189.87936 
    7200    274.85624    262.94212    46586.342   -14649.927    1281.3762   -15931.304    190.34688 
    7250    268.86212     52.48081    46828.462   -14669.241    1253.4317   -15922.673    192.98126 
    7300    267.82504    100.46828    46817.256   -14659.803    1248.5968     -15908.4    193.77494 
    7350    284.20488    -306.8052    46718.534   -14666.888    1324.9594   -15991.847    194.46645 
    7400    276.80219     -78.5496     46752.39   -14700.397    1290.4482   -15990.845    195.14379 
    7450    282.36459    -69.02057    46731.866   -14624.899      1316.38   -15941.279    196.89533 
    7500    270.17711      52.2448    46827.812   -14636.389    1259.5622   -15895.951    199.83883 
    7550    275.36617    196.33335    46759.217   -14693.366    1283.7535   -15977.119    201.50351 
    7600    274.34909    83.235864    46677.605   -14680.904    1279.0119   -15959.916    202.92997 
    7650    278.19985   -256.98651    46735.696    -14673.21    1296.9641   -15970.174    204.55739 
    7700    283.76636   -165.88372    46657.557   -14595.462    1322.9151   -15918.377      206.467 
    7750    288.13776   -117.50814     46728.24   -14545.783    1343.2945   -15889.078     207.8217 
    7800    272.70344    141.96312    46714.672   -14603.344    1271.3399   -15874.684    209.17083 
    7850    275.78382     45.66515    46814.343   -14586.561    1285.7006   -15872.262     210.9836 
    7900    276.03202    108.79918    46958.244   -14627.891    1286.8577   -15914.749    212.94659 
    7950    272.07198   -29.444128    46890.753   -14650.564     1268.396    -15918.96    214.15705 
    8000     275.7055   -64.709072    46894.237   -14604.943    1285.3354   -15890.279    215.84075 
    8050    273.36139   -91.005378    46836.638   -14650.453    1274.4072    -15924.86    217.02941 
    8100    278.17414     260.5501    46992.947   -14686.487    1296.8442   -15983.331    219.48436 
    8150    269.26588   -140.66619    47045.551   -14668.631     1255.314   -15923.945    220.93291 
    8200    275.27008    18.070206    46983.715   -14677.364    1283.3055    -15960.67     222.0762 
    8250    272.70474   -253.01845    47029.175   -14680.791    1271.3459   -15952.137     224.5067 
    8300    271.42798   -156.07375    46935.755   -14669.049    1265.3937   -15934.443    224.64029 
    8350    276.41226   -44.293783    46849.228   -14627.548    1288.6303   -15916.179    225.20379 
    8400     278.0925   -218.00318    46722.223   -14633.152    1296.4636   -15929.616    226.27927 
    8450    286.67574   -187.03779    46876.844   -14568.948    1336.4785   -15905.427    227.76227 
    8500    280.37077   -65.364985    46935.889   -14557.103    1307.0849   -15864.187    228.41575 
    8550    282.28837     49.49485     46939.84   -14556.194    1316.0247   -15872.219    230.43211 
    8600    284.42656    297.02879     46950.75   -14591.565    1325.9929   -15917.558    231.95199 
    8650    276.87541    76.385012    46957.954   -14589.705    1290.7896   -15880.495    233.98678 
    8700    285.86506   -48.135654    46931.525   -14566.862    1332.6992   -15899.561    235.10321 
    8750    267.78942   -72.268982    46971.421    -14624.64    1248.4308   -15873.071    236.46096 
    8800    272.13434   -406.62909    46935.074   -14606.078    1268.6867   -15874.765    238.26317 
    8850    283.38039   -245.95782    46825.108   -14642.881    1321.1157   -15963.997    239.35182 
    8900    275.31707    64.776592    46789.646   -14688.651    1283.5246   -15972.175    240.59538 
    8950    270.78332   -233.82322    46774.437   -14668.966    1262.3883   -15931.354    241.76659 
    9000    283.36556   -130.45223    46733.872   -14625.985    1321.0465   -15947.032    242.51661 
    9050    267.41839   -290.37161    46629.922   -14676.321    1246.7011   -15923.022    243.84343 
    9100    269.44465    290.07593    46799.005   -14671.363    1256.1474    -15927.51    245.39157 
    9150    280.74961   -135.15091    46756.291   -14588.616     1308.851   -15897.467    246.54894 
    9200    281.78951   -72.374729    46664.655   -14573.339     1313.699   -15887.038    248.72482 
    9250    281.88464     -439.873    46733.708   -14566.762    1314.1425   -15880.905    251.51345 
    9300    280.08149   -524.40907     46682.38   -14648.509    1305.7363   -15954.245    252.79364 
    9350    272.32997     356.7311    46645.792   -14669.184    1269.5988   -15938.783    254.43797 
    9400    280.44349   -7.2683555    46736.469   -14609.426    1307.4239    -15916.85    255.14912 
    9450    281.79097   -183.47619    46690.302   -14602.429    1313.7058   -15916.135    257.19359 
    9500    279.16293    179.67421    46704.035   -14628.117    1301.4539   -15929.571    258.59554 
    9550    275.13198   -153.78779    46530.679   -14634.379    1282.6617   -15917.041    258.52261 
    9600    281.87176    140.07058    46689.063   -14587.803    1314.0825   -15901.885    259.47126 
    9650     281.1226   -135.24572    46787.273    -14575.84    1310.5899    -15886.43    261.54035 
    9700     288.7857   -139.42453    46663.161   -14542.532    1346.3152   -15888.847    262.24477 
    9750    283.43219   -2.3646571    46536.383   -14567.484    1321.3572   -15888.842    262.50106 
    9800    278.88236    191.96175    46598.155   -14613.101    1300.1459   -15913.247    263.86902 
    9850    278.10616   -86.187742    46685.026   -14619.638    1296.5273   -15916.166    266.48693 
    9900    269.14091   -105.38103     46677.75   -14654.094    1254.7314   -15908.825    267.86986 
    9950    277.40535    4.4072955    46707.339   -14619.801    1293.2601   -15913.061    269.73304 
   10000     270.9118    125.15144    46636.687   -14668.137    1262.9873   -15931.125    270.67639 
   10050    275.00762   -150.11811    46699.256   -14622.561    1282.0819   -15904.643    272.51975 
   10100    282.16549   -111.80095    46796.892   -14622.196    1315.4518   -15937.647    273.97676 
   10150    273.77681    146.90623    46884.265   -14597.344    1276.3439   -15873.688    276.33895 
   10200    272.30561   -127.85677    46818.237   -14670.445    1269.4852    -15939.93    277.80468 
   10250    269.48817   -64.495157    46803.998   -14727.483    1256.3503   -15983.833    279.03997 
   10300     279.3375   -117.39893      46797.1   -14645.519    1302.2678   -15947.786    280.22233 
   10350    274.70667   -9.5401443    46771.191   -14590.043    1280.6789   -15870.722    282.47291 
   10400    283.60626    76.374857    46862.848   -14590.776    1322.1687   -15912.945    284.68067 
   10450    275.02456   -550.01245    46723.296   -14641.582    1282.1609   -15923.743    286.21572 
   10500    284.60129    481.39126     46625.23   -14577.737    1326.8075   -15904.544       287.75 
   10550    273.00877    24.929493    46770.535   -14581.024    1272.7633   -15853.788    289.39485 
   10600    285.81563    612.73828    46945.062   -14544.044    1332.4687   -15876.512    293.22073 
   10650    282.38806   -409.53524    46958.726   -14537.746    1316.4894   -15854.235    294.19978 
   10700     277.6903    120.72836    46743.321   -14536.841    1294.5886   -15831.429    294.59918 
   10750    287.84399   -178.31641    46729.469   -14537.385    1341.9249    -15879.31    295.25798 
   10800    289.76415    190.42052    46861.766   -14531.444    1350.8767    -15882.32    297.85411 
   10850    276.01736   -55.128485    46947.039   -14571.852    1286.7893   -15858.641    300.93912 
   10900    280.50074   -54.859732    46952.578   -14554.667    1307.6908   -15862.358    301.49881 
   10950    278.53321    309.04033    46905.307   -14536.343    1298.5182   -15834.861    302.31596 
   11000    284.93569     324.1795    46915.162   -14549.877    1328.3665   -15878.243    303.76978 
   11050    285.35882    211.80788    46814.674   -14596.131    1330.3391    -15926.47    305.23607 
   11100    277.80773    63.867591    46751.584    -14600.88     1295.136   -15896.016    307.51913 
   11150    275.03124    245.41445    46785.033   -14625.005     1282.192   -15907.197     309.2803 
   11200    275.51466   -211.33915    46774.297    -14589.46    1284.4457   -15873.906    311.62589 
   11250    281.63871    -155.1636    46755.104    -14579.52     1312.996   -15892.516    312.02033 
   11300    270.52943     32.17684    46914.198   -14579.032    1261.2047   -15840.237    313.81376 
   11350    284.44448   -373.18129    46744.642   -14510.518    1326.0765   -15836.595    314.67346 
   11400    279.49103     212.5478    46699.578   -14569.508    1302.9835   -15872.492    316.15889 
   11450    278.82737   -385.62198    46720.171   -14582.354    1299.8895   -15882.244    316.82967 
   11500    280.44838   -72.109282    46774.727   -14590.924    1307.4467    -15898.37    319.77501 
   11550     275.1898   -195.15974    46682.556   -14620.422    1282.9313   -15903.354    319.65304 
   11600    282.62045   -280.55862    46571.681   -14623.309    1317.5728   -15940.881    320.66532 
   11650    279.78874   -111.13878    46478.555   -14597.401    1304.3714   -15901.773    321.72359 
   11700      283.115    62.736085    46621.441   -14523.037    1319.8784   -15842.915    323.21766 
   11750    275.43126   -68.664991      46581.5   -14518.439    1284.0569   -15802.496    325.17541 
   11800    273.71224    242.91138    46675.287    -14586.99    1276.0429   -15863.033    327.96415 
   11850    283.07399    197.68682    46728.101   -14585.406    1319.6873   -15905.093    331.16937 
   11900    284.22291    223.54324     46912.91   -14617.962    1325.0435   -15943.006    333.82893 
   11950    277.69589    88.170748    46880.434   -14655.689    1294.6146   -15950.304    334.83564 
   12000    278.58612    424.11443    47035.304   -14592.327    1298.7649   -15891.092    337.78905 
   12050    281.66846    71.994051    47022.956   -14584.357    1313.1347   -15897.492    338.25628 
   12100    279.79014   -442.05698    46925.234   -14576.822     1304.378     -15881.2    339.17428 
   12150    293.07006   -92.736507    46812.683   -14510.237    1366.2888   -15876.526    341.12752 
   12200    284.26079   -132.86922    46860.733   -14590.547    1325.2201   -15915.767    343.99749 
   12250    277.17943   -429.52906    46721.292   -14609.984    1292.2069   -15902.191     343.9049 
   12300    284.47585    30.727684    46749.187   -14588.594    1326.2227   -15914.817    346.82543 
   12350    273.18096   -25.243958    46810.068   -14578.649    1273.5661   -15852.215    348.21453 
   12400    287.21438    125.05333    46815.845   -14575.302    1338.9897   -15914.292    350.33169 
   12450    276.37912   -65.205539    46881.804    -14595.87    1288.4758   -15884.346    351.48619 
   12500    271.41846    227.65531    46764.539   -14651.736    1265.3493   -15917.085    352.65714 
   12550    277.78623    13.417453     46914.94   -14605.076    1295.0358   -15900.112    354.58755 
   12600    282.62749    312.24626    46732.067   -14548.779    1317.6057   -15866.384    355.93768 
   12650    283.21889   -94.806011    46798.672   -14535.052    1320.3628   -15855.415    357.56401 
   12700    288.50499    105.88853    46849.162   -14558.229    1345.0065   -15903.236    359.16359 
   12750    280.21486   -28.680138     46765.97   -14551.167     1306.358   -15857.525    361.31664 
   12800    287.89505   -53.334774    46755.464   -14551.889    1342.1629   -15894.052    362.71419 
   12850    277.99262    -446.2849     46814.13   -14585.855     1295.998   -15881.853    363.66904 
   12900    279.37687    242.02225    46588.738   -14594.557    1302.4513   -15897.008    365.07625 
   12950    274.81595    -186.8164    46644.684   -14635.709    1281.1884   -15916.898    368.31416 
   13000    291.32418   -355.73918    46720.261    -14537.36    1358.1495    -15895.51     370.4464 
   13050    297.96239   -180.21402    46726.008   -14496.022    1389.0968   -15885.119    371.68607 
   13100    281.39909   -9.3686443    46687.758   -14542.805    1311.8789   -15854.683     373.3702 
   13150    289.48175   -345.97809     46789.62   -14526.871    1349.5601   -15876.432     376.6127 
   13200    292.08679    -140.9107    46853.036    -14496.72    1361.7048   -15858.425    379.14829 
   13250    284.50752   -263.19391    46645.059   -14535.092    1326.3703   -15861.463    379.34305 
   13300    283.68168    200.98294    46707.548   -14548.101    1322.5203   -15870.621    381.79902 
   13350    278.90664    -220.5863    46857.049   -14577.524    1300.2591   -15877.783    385.03301 
   13400     285.9625   -40.685587    46700.729   -14607.186    1333.1535    -15940.34    386.82754 
   13450    284.90189   -109.28533    46707.623   -14645.004    1328.2089   -15973.213    390.02167 
   13500    273.35429    16.017208    46761.039   -14637.118    1274.3741   -15911.492    391.98244 
   13550     273.7805   -142.14795    46796.574   -14632.777    1276.3611   -15909.138    392.30234 
   13600     270.8369     121.1704    46701.168    -14660.94    1262.6381   -15923.578    392.99759 
   13650     273.5237   -132.12351     46691.65   -14627.668    1275.1639   -15902.832    393.96679 
   13700    280.50986    410.52044    46698.871   -14606.883    1307.7333   -15914.616    396.41737 
   13750    275.73452    53.019338    46829.194   -14587.888    1285.4707   -15873.358     398.0953 
   13800     284.2083   -137.44181     46638.73   -14540.857    1324.9754   -15865.833    397.56866 
   13850    287.01841    246.29285    46803.219   -14576.336    1338.0761   -15914.412    400.47639 
   13900    278.61456   -168.65407    46920.574   -14577.847    1298.8974   -15876.745     402.2891 
   13950    285.15081    55.153819    47005.214   -14550.631    1329.3693   -15880.001    404.46142 
   14000    281.46429   -313.84284    46772.372   -14566.035    1312.1828   -15878.217    404.47711 
   14050    275.78953   -85.195989    46758.138   -14540.691    1285.7272   -15826.418    406.08028 
   14100    278.24579   -333.87697    46632.586   -14562.003    1297.1782   -15859.181    406.80567 
   14150    285.10226    31.396885    46604.163    -14530.47     1329.143   -15859.613     408.2498 
   14200    290.03604   -237.18351    46651.741   -14557.784    1352.1442   -15909.928    409.31345 
   14250    285.39476   -55.587499     46717.56   -14550.631    1330.5067   -15881.137    410.99118 
   14300    272.53405   -135.53884    46642.661   -14656.846    1270.5502   -15927.396    411.87056 
   14350    272.08434    58.783117    46536.814   -14617.941    1268.4536   -15886.395    413.36308 
   14400    279.17696    14.074091    46558.675   -14634.389    1301.5193   -15935.909     415.5409 
   14450    274.43831    -100.0314    46600.274   -14636.132    1279.4278    -15915.56    417.70795 
   14500    274.99155    248.70575    46696.437   -14568.585     1282.007   -15850.592    420.68705 
   14550    275.06045    30.521665    46737.888   -14619.626    1282.3282   -15901.954    424.16958 
   14600    277.54758   -126.28314    46691.227   -14569.784    1293.9232   -15863.708     425.7939 
   14650    279.70468   -117.91442    46625.345   -14625.731    1303.9796   -15929.711    428.24034 
   14700    281.24507   -243.08366    46678.569   -14599.034    1311.1608   -15910.195    430.24905 
   14750     267.7516    108.05086    46738.909   -14603.553    1248.2545   -15851.808     432.6643 
   14800    274.90069    79.678577     46639.57   -14629.262    1281.5834   -15910.845    432.95851 
   14850    273.63006   -448.46246    46630.599    -14682.68    1275.6597    -15958.34    434.17716 
   14900    269.09814   -21.056865    46630.791   -14704.525     1254.532   -15959.057    435.02601 
   14950     272.7129    219.87929    46702.638   -14668.665     1271.384   -15940.049    436.60224 
   15000    275.22933   -138.00545    46542.411    -14698.94    1283.1155   -15982.056    436.60407 
   15050    270.33851   -181.84026    46446.723   -14710.669    1260.3146   -15970.983    436.72938 
   15100     270.5432   -63.234348    46458.351   -14691.287    1261.2688   -15952.556    438.96981 
   15150    274.82413    257.39271    46546.633   -14667.041    1281.2265   -15948.267    440.90029 
   15200    278.95748    -93.00541    46770.492   -14614.952    1300.4961   -15915.448    443.39551 
   15250    276.81049    232.50376    46799.161   -14624.694    1290.4869   -15915.181    444.66235 
   15300     280.5995    19.931121    46834.354   -14596.433    1308.1512   -15904.584    445.04978 
   15350     276.2123   -429.25448     46793.07    -14647.44    1287.6981   -15935.138    446.11685 
   15400    282.82207    350.20925    46767.108   -14616.127    1318.5128    -15934.64    447.19269 
   15450    286.37644   -74.275782    46898.593   -14636.038    1335.0832   -15971.121    449.07674 
   15500     269.8787    -59.46023    46814.606   -14664.782     1258.171   -15922.953    449.78715 
   15550    277.37116    67.566913    46863.268    -14618.97    1293.1007   -15912.071    451.41744 
   15600    280.75531    162.82412    46957.979    -14586.39    1308.8776   -15895.268    453.31845 
   15650    277.03264   -93.089065    47061.219   -14621.514    1291.5225   -15913.037    454.83837 
   15700    271.27351   -254.66683    46950.406   -14649.404    1264.6735   -15914.077    455.21385 
   15750    280.50958   -348.08767    46915.589   -14631.373     1307.732   -15939.105    457.29182 
   15800    274.49984    21.807543    46880.824   -14654.433    1279.7147   -15934.147     459.1192 
   15850    278.81224   -6.3924123    46939.652   -14650.604     1299.819   -15950.423    461.03337 
   15900    282.98641    206.61685    46927.263   -14673.771     1319.279    -15993.05    463.74366 
   15950    268.94519    -111.3251    46829.187   -14677.237     1253.819   -15931.056    464.65912 
   16000    280.30147   -25.685452    47061.759   -14609.233    1306.7618   -15915.995    467.95542 
   16050    280.82899    167.05244    46904.813   -14583.891    1309.2211   -15893.112    468.37578 
   16100    289.59615     -433.857    46898.044   -14556.825    1350.0935   -15906.918    470.84886 
   16150    270.26647    47.160365     46726.69   -14598.018    1259.9788   -15857.997    469.89884 
   16200    269.81955    164.55232    46785.172   -14611.395    1257.8952    -15869.29    473.13919 
   16250     275.1586   -212.69373    46722.057   -14636.615    1282.7858   -15919.401    474.04479 
   16300    280.79687   -101.37451    46736.187   -14619.162    1309.0713   -15928.234    476.15671 
   16350    281.70029    42.264741    46644.388   -14625.305    1313.2831   -15938.588    477.57951 
   16400     285.8241    270.08973    46724.135   -14554.849    1332.5082   -15887.358    479.23206 
   16450    287.19149    25.227101    46906.605   -14553.925     1338.883   -15892.808    483.36004 
   16500    279.82203    39.548464    46971.204   -14559.273    1304.5267     -15863.8    483.86841 
   16550    274.48402   -112.78564    46933.513   -14592.385    1279.6409   -15872.026     484.6472 
   16600    284.52262    12.948185    46836.443   -14517.398    1326.4407   -15843.839    487.07183 
   16650    277.46538   -84.793209    46814.244   -14579.854      1293.54   -15873.394    487.94512 
   16700    291.76473   -131.45802    46892.055   -14559.167    1360.2033   -15919.371    492.10515 
   16750    278.87479    143.35654     46796.96   -14550.816    1300.1106   -15850.926    493.65492 
   16800    288.26766    200.52641    46905.333    -14539.16    1343.9001    -15883.06    497.77788 
   16850     293.8817   -49.129451    46963.674   -14496.768    1370.0726    -15866.84    498.25786 
   16900    290.11728   -89.367101    46800.929   -14525.879     1352.523   -15878.402    498.02131 
   16950    280.33526    236.22274    46833.105   -14554.831    1306.9193    -15861.75    498.27077 
   17000    285.06428    6.4435168    46774.888   -14574.291     1328.966   -15903.257    499.75159 
   17050    290.15119    367.99853    46865.032   -14507.369    1352.6811    -15860.05    500.40986 
   17100    283.17866   -10.668074    46809.784   -14517.599    1320.1752   -15837.774    501.86004 
   17150    282.68971   -28.739892    46822.565   -14480.168    1317.8957   -15798.064    503.15099 
   17200    283.58789     14.75142    46741.667   -14537.942     1322.083   -15860.025    504.16834 
   17250    286.58276   -174.71443    46813.609   -14563.245    1336.0451    -15899.29    505.49399 
   17300    281.60936    69.304341    46648.464   -14597.552    1312.8592   -15910.411    504.84656 
   17350    288.90146    161.07929    46686.479   -14570.452    1346.8548   -15917.307    506.00334 
   17400    275.88515   -289.39967    46659.386   -14592.893     1286.173   -15879.066    507.24465 
   17450    290.07443    9.2449741     46736.51   -14576.021    1352.3232   -15928.344    508.58973 
   17500    275.79947   -233.72412    46687.092   -14631.754    1285.7735   -15917.527    509.73648 
   17550    277.09356    239.05573     46720.13   -14614.364    1291.8066   -15906.171    511.64789 
   17600    287.66689    474.20018    46926.833   -14515.994    1341.0993   -15857.094     512.9445 
   17650    279.74025    61.490098    46820.405   -14583.624    1304.1454    -15887.77    514.98102 
   17700    278.93766   -174.35661    46807.458   -14595.134    1300.4037   -15895.538    516.28494 
   17750    274.39369   -93.298859    46647.367   -14594.761    1279.2198    -15873.98    516.42506 
   17800    286.23129   -363.81917     46575.17   -14587.716    1334.4065   -15922.122    518.97421 
   17850    280.90204    39.401145    46672.144   -14595.036    1309.5617   -15904.597    522.12198 
   17900     281.7682     129.4316    46643.333   -14557.738    1313.5997   -15871.338    523.11899 
   17950     291.3735    230.90591    46722.075   -14557.262    1358.3795   -15915.641    526.87106 
   18000    291.07026   -120.06561    46750.956   -14500.364    1356.9658   -15857.329    528.69228 
   18050    276.79841   -421.12222    46811.913   -14569.983    1290.4306   -15860.413    531.72465 
   18100    267.30681    184.28042    46665.133   -14586.778    1246.1808   -15832.959     531.6748 
   18150    278.01961    40.848036    46661.197   -14565.079    1296.1238   -15861.203    533.36187 
   18200    281.56186    19.771577    46698.573   -14569.294    1312.6377   -15881.932    535.94415 
   18250    280.82273    189.47645    46718.063   -14514.749    1309.1919   -15823.941    538.12874 
   18300    285.24109   -224.66381    46724.366   -14516.621    1329.7902   -15846.411    539.66907 
   18350    279.85766    70.009587    46608.084    -14533.52    1304.6928   -15838.213    539.97309 
   18400    283.04222    139.34433    46525.426   -14565.315    1319.5391   -15884.854    541.11599 
   18450    283.91538   -18.826983    46752.706   -14535.538    1323.6098   -15859.148    543.81306 
   18500    274.19306   -448.78988    46736.312   -14575.655    1278.2845   -15853.939    545.17533 
   18550    279.94551    255.45424    46731.186   -14579.202    1305.1023   -15884.304     547.7454 
   18600    274.74278    135.14783    46800.722    -14581.13    1280.8472   -15861.977    549.73402 
   18650    277.90384    136.67031    46816.099   -14582.179    1295.5841   -15877.763    550.60454 
   18700     286.9287    164.26816    46794.594   -14574.751    1337.6578   -15912.409    552.17743 
   18750    280.33982    110.21368    46943.699   -14560.804    1306.9406   -15867.744    554.91539 
   18800    279.27403   -280.51698    46795.825   -14559.072    1301.9719   -15861.044    556.50773 
   18850    278.11976   -162.99185    46580.856   -14596.876    1296.5907   -15893.466    555.69742 
   18900    281.02631   -221.41897    46623.051   -14555.831     1310.141   -15865.972    557.09897 
   18950    274.75954    257.85486    46617.002   -14537.296    1280.9254   -15818.221    558.76876 
   19000    282.26877    185.44231    46831.779   -14533.219    1315.9333   -15849.153    561.80261 
   19050    279.54424    59.681323    46583.942   -14542.381    1303.2316   -15845.613    561.36365 
   19100    276.82985    46.550872    46583.808   -14592.909    1290.5771   -15883.486    562.69161 
   19150    278.34857   -43.051354    46781.185   -14585.523    1297.6574   -15883.181    565.89675 
   19200    281.97825    461.29058    46854.308   -14537.355    1314.5789   -15851.934    569.19604 
   19250    283.95435   -56.944331    46775.137   -14503.804    1323.7915   -15827.596    568.41218 
   19300    288.88175    -27.35325    46820.354   -14528.109    1346.7629   -15874.872    570.42629 
   19350    287.96725   -140.14636    46673.284   -14531.507    1342.4996   -15874.007    572.77391 
   19400    282.11418    273.49047    46774.823   -14551.293    1315.2126   -15866.505     573.7957 
   19450    282.66138    217.69424    46605.623   -14569.925    1317.7636   -15887.688    574.31963 
   19500    287.41356    87.461465     46682.34   -14548.031    1339.9183   -15887.949    577.33245 
   19550    281.85976    198.02884    46600.794   -14577.828    1314.0265   -15891.854    577.91992 
   19600    268.79293    11.248585    46636.401   -14602.102    1253.1091   -15855.211    578.65933 
   19650    286.50623    106.90989     46717.19   -14582.035    1335.6883   -15917.723    579.82168 
   19700    286.45173    108.67073    46761.619    -14542.83    1335.4342   -15878.264    583.45863 
   19750    280.69951   -331.15593    46862.695   -14564.679    1308.6175   -15873.297    585.97093 
   19800    272.07046    69.779994    46695.708   -14580.548    1268.3889   -15848.937    586.19865 
   19850    282.10918   -221.90425    46715.429   -14588.512    1315.1893   -15903.701    588.83524 
   19900    284.47339    267.03618    46687.226   -14602.638    1326.2112   -15928.849    588.86265 
   19950    274.39624   -203.16272    46624.426    -14618.62    1279.2317   -15897.852    590.65064 
   20000    286.18975   -346.35171     46659.98   -14609.074    1334.2128   -15943.287    592.65445 
   20050    278.54239    218.64095    46573.469   -14566.122     1298.561   -15864.683     591.4271 
   20100    279.11631   -24.771982    46790.118   -14636.913    1301.2366    -15938.15    595.28494 
   20150     277.8962   -8.7467542    46733.507   -14623.688    1295.5484   -15919.237    594.78864 
   20200    284.19906    313.00266    46832.289   -14609.293    1324.9323   -15934.226    597.55169 
   20250    275.17711    12.872097    46851.089   -14667.045    1282.8721   -15949.918    598.13866 
   20300    277.06833   -497.42338    46785.936   -14630.331    1291.6889    -15922.02    598.77293 
   20350    279.80504   -23.022076    46734.924   -14632.835    1304.4475   -15937.283    597.43818 
   20400    279.54565    270.15651    46660.324   -14612.634    1303.2382   -15915.873    597.75008 
   20450    272.58332     -208.616    46675.445   -14608.217    1270.7799   -15878.997    599.43131 
   20500    274.32475    40.053505    46673.267   -14611.201    1278.8984   -15890.099    601.71243 
   20550     271.4668    104.48872    46614.433   -14628.376    1265.5747    -15893.95    602.74698 
   20600    274.92027    99.007807    46616.617   -14660.779    1281.6747   -15942.453    605.94527 
   20650    280.65034   -37.164516    46631.536   -14602.498    1308.3882   -15910.886    609.07921 
   20700    278.77659    256.10315    46795.344   -14554.982    1299.6528   -15854.635    610.07706 
   20750    280.80071     200.1907    46738.442     -14549.4    1309.0892   -15858.489    611.52651 
   20800    275.63526   -304.54967    46836.611   -14566.593     1285.008   -15851.601    614.57678 
   20850     279.5494   -226.00021    46649.181   -14595.588    1303.2556   -15898.843    613.77851 
   20900    282.66721   -91.429294    46585.496   -14590.198    1317.7908   -15907.988    615.21472 
   20950    270.78425   -242.35386      46583.8    -14628.13    1262.3926   -15890.523    616.28289 
   21000    269.63477    187.88287    46649.413   -14703.176    1257.0338    -15960.21    617.52769 
   21050    269.88723    -72.08502    46608.011   -14682.464    1258.2107   -15940.674    620.63032 
   21100    267.51209    365.83061    46569.069   -14686.224    1247.1378   -15933.361    623.10434 
   21150    278.71151   -279.65993    46566.075   -14657.843    1299.3494   -15957.193    624.27317 
   21200    274.30058   -211.79296    46627.799   -14638.544    1278.7857    -15917.33    626.42948 
   21250    279.54984    156.57003    46789.106   -14606.668    1303.2577   -15909.926    629.57277 
   21300    283.20966   -97.861124    46665.357   -14607.135    1320.3197   -15927.454    628.64411 
   21350    282.90518   -309.47154    46723.858   -14635.968    1318.9003   -15954.869     629.9592 
   21400    279.60784    242.50174    46684.133   -14581.187    1303.5281   -15884.715    632.32581 
   21450    279.06916   -317.36243    46667.783   -14618.044    1301.0168   -15919.061     631.7874 
   21500    283.91108   -46.717581     46686.81    -14625.24    1323.5897    -15948.83     634.7163 
   21550    274.25354   -26.097658    46694.842   -14585.437    1278.5664   -15864.004    636.71682 
   21600    278.42234   -45.619914    46679.353    -14605.29    1298.0013   -15903.291     639.3355 
   21650    282.61625    92.031135    46845.644   -14559.272    1317.5532   -15876.825    643.40126 
   21700     288.1381   -96.352352    46775.075   -14557.393     1343.296   -15900.689    642.67419 
   21750    284.11906   -76.163956    46609.968   -14517.351    1324.5593   -15841.911    641.02237 
   21800    280.49128    375.73469     46571.67   -14538.844    1307.6467   -15846.491    642.44735 
   21850    279.20131    114.20266    46599.169    -14556.54    1301.6328   -15858.173    644.17582 
   21900    281.22851    23.288972    46727.787   -14580.321    1311.0836   -15891.405    647.14168 
   21950    275.16402    235.12606    46840.824   -14578.957    1282.8111   -15861.768    650.32365 
   22000    271.26929    21.665545    46780.071   -14632.985    1264.6539   -15897.639    650.72649 
   22050    279.14435    208.56836    46771.712   -14584.926    1301.3673   -15886.293    653.51271 
   22100    277.60405    91.410619    46779.291    -14622.04    1294.1865   -15916.227    654.98309 
   22150    272.48238    127.97988    46567.552   -14620.709    1270.3093   -15891.018    653.54109 
   22200    282.68822   -61.991501    46580.756   -14571.325    1317.8888   -15889.214    655.13167 
   22250    281.29453   -379.86038    46728.874   -14590.895    1311.3914   -15902.287    657.60027 
   22300    278.32129    168.11304    46787.232   -14564.301    1297.5302   -15861.831    660.45578 
   22350    281.43384   -1.3744507    46686.017   -14573.869    1312.0409   -15885.909    659.23419 
   22400     290.7576     146.1698    46835.209   -14561.489    1355.5081   -15916.997    663.35809 
   22450    281.80989    202.27963    46967.266   -14580.268     1313.794   -15894.062    666.19259 
   22500    283.68167    138.39993    47092.416   -14539.295    1322.5202   -15861.815     669.6933 
   22550    297.65261   -87.051649    47056.802   -14511.238    1387.6526    -15898.89    671.91846 
   22600    275.42653    309.94086    46989.485   -14559.807    1284.0349   -15843.842    671.32624 
   22650    282.22484    12.439947    46880.744   -14568.081    1315.7285    -15883.81    671.59775 
   22700    271.89916    1.9244817    46791.282    -14589.83    1267.5903   -15857.421    673.07823 
   22750     283.4005   -146.13009    46669.685   -14559.601    1321.2094    -15880.81    672.52699 
   22800    282.16949    263.69186      46751.3   -14541.978    1315.4705   -15857.448    674.71248 
   22850    276.69556    114.01329    46768.322   -14544.028    1289.9511    -15833.98    675.01678 
   22900    285.91835   -94.595379    46681.402   -14546.949    1332.9476   -15879.897    676.10176 
   22950    281.41926    68.404091    46728.068   -14549.514    1311.9729   -15861.487    678.20053 
   23000    288.86911    7.5094743    46565.263   -14535.509     1346.704   -15882.213    680.16052 
   23050    276.17369    616.64141      46622.6   -14584.877    1287.5181   -15872.395    682.78921 
   23100     282.2602   -87.066382    46738.081   -14601.348    1315.8933   -15917.242    684.32362 
   23150      278.228   -50.742229    46913.207   -14558.909    1297.0953   -15856.005    688.87643 
   23200    281.17231   -398.77835    46889.123   -14597.247    1310.8216   -15908.069    690.51102 
   23250    279.18496   -296.86546    46824.348   -14607.677    1301.5566   -15909.234    691.68181 
   23300    277.92151    24.268737    46737.577   -14561.714    1295.6664   -15857.381    691.82955 
   23350    270.22937     238.7148    46676.117   -14593.443    1259.8058   -15853.249    693.32517 
   23400    286.97878    3.2583876    46729.906   -14534.886    1337.8913   -15872.777    696.08264 
   23450     283.7773    161.42995      46796.5   -14591.186     1322.966   -15914.152    698.78838 
   23500    275.03664    -139.0398    46720.329   -14589.036    1282.2172   -15871.253    699.07964 
   23550    292.03856   -119.80211    46771.431   -14557.398    1361.4799   -15918.878    700.18752 
   23600    276.19934   -142.67581    46571.121   -14594.717    1287.6377   -15882.355    699.66961 
   23650    275.06766   -109.50889    46478.635   -14608.595    1282.3619   -15890.957    700.75896 
   23700    280.79462    338.56281    46536.307   -14633.756    1309.0608   -15942.817    701.88627 
   23750     279.7933    -205.8677    46571.208   -14650.638    1304.3927    -15955.03    703.30631 
   23800    281.83768    97.401275    46812.622   -14653.425    1313.9236   -15967.348    706.05541 
   23850    276.58721   -33.321748     46723.39    -14640.71     1289.446   -15930.156    705.95816 
   23900     274.6191    419.34657    46652.762    -14634.78    1280.2707    -15915.05    706.54944 
   23950    286.60198    7.6594979    46714.093   -14595.061    1336.1347   -15931.196    710.35509 
   24000    271.68397    -195.6784    46672.512   -14559.312    1266.5871   -15825.899    712.00559 
   24050    289.62608    -212.6227    46547.287   -14550.518     1350.233   -15900.751    712.28131 
   24100    284.14849   -110.99605    46532.148   -14596.253    1324.6966    -15920.95    715.05683 
   24150    272.28166    -40.74439    46540.472   -14635.454    1269.3735   -15904.827    717.18888 
   24200     275.1312    175.73556    46808.485   -14619.752    1282.6581    -15902.41    721.56154 
   24250    284.88591    -443.1405    46696.021   -14613.456    1328.1344   -15941.591    722.70412 
   24300    280.92708    200.04146    46750.692   -14589.282    1309.6784    -15898.96    725.18406 
   24350    282.73968     259.3329    46902.927    -14600.06    1318.1287   -15918.188    727.68518 
   24400    272.82384   -98.462381    46881.562    -14649.63    1271.9012   -15921.531    728.36213 
   24450    273.39819    372.03619    46803.014   -14673.555    1274.5788   -15948.133    729.38824 
   24500    283.75392    75.417485    46823.416    -14612.42    1322.8571   -15935.277    730.26298 
   24550    274.85878   -126.41844    46673.134   -14638.959    1281.3881   -15920.347    731.45154 
   24600    278.38027    157.30832    46950.625   -14624.717    1297.8052   -15922.523    735.81078 
   24650    270.72115   -97.702975    46894.047   -14606.205    1262.0985   -15868.303    737.52587 
   24700    281.14498    74.094585    46811.512   -14618.047    1310.6942   -15928.742    738.49149 
   24750    274.00017   -351.98594    46909.781   -14624.926    1277.3852   -15902.311    740.13485 
   24800    279.26071    -323.7292     46768.85   -14619.777    1301.9098   -15921.686    739.86028 
   24850    279.46015    177.68951    46917.754   -14565.861    1302.8396   -15868.701    742.81607 
   24900    280.66766    19.437895    46935.948   -14557.564     1308.469   -15866.033    744.57081 
   24950    283.75752   -341.57898    46744.282   -14554.237    1322.8739   -15877.111    744.43183 
   25000    282.94384    25.725121    46874.263   -14527.048    1319.0805   -15846.129    749.46524 
   25050    277.81839    158.42126    46867.702   -14523.295    1295.1857   -15818.481    751.18451 
   25100    278.88079    -41.83066    46950.567   -14569.709    1300.1386   -15869.848    752.91314 
   25150    278.39955   -294.48209    46932.628   -14617.772    1297.8951   -15915.667    757.24401 
   25200    278.49257    193.31659    46862.146   -14605.033    1298.3287   -15903.362    759.58355 
   25250     283.5813   -324.10982    46787.785   -14600.702    1322.0523   -15922.755    762.32293 
   25300    293.01653   -214.03546     46645.76   -14610.845    1366.0392   -15976.884    764.57772 
   25350    281.46269    87.311119    46655.412   -14593.649    1312.1754   -15905.825    765.85439 
   25400    283.09049   -108.49159    46765.406   -14568.355    1319.7642   -15888.119    770.12485 
   25450    285.88991    -181.8551      46773.2   -14574.712     1332.815   -15907.527    771.24501 
   25500    286.12731   -63.393212    46708.389   -14574.375    1333.9218   -15908.297    773.34262 
   25550    284.33071   -284.97086    46502.193   -14578.891    1325.5461   -15904.437    772.53583 
   25600     284.1644    56.544978    46573.188   -14549.738    1324.7707   -15874.508    776.17565 
   25650    276.26901    80.575561    46636.858   -14614.101    1287.9625   -15902.063    777.89976 
   25700    282.66456    197.84722    46659.506   -14625.806    1317.7785   -15943.584    780.03007 
   25750    285.10039   -134.93937    46915.239   -14605.657    1329.1343   -15934.792    784.14236 
   25800    281.68103    172.02389     46914.83   -14609.695    1313.1933   -15922.888    784.73267 
   25850    277.01159   -201.99196    46600.025   -14588.083    1291.4244   -15879.507    781.83137 
   25900    278.02827   -96.931598    46665.249   -14549.003    1296.1642   -15845.167    784.30466 
   25950    290.49895   -201.73017    46606.289    -14528.67    1354.3023   -15882.973    785.55781 
   26000    283.74616   -294.70689    46734.474   -14535.068    1322.8209   -15857.888    787.66368 
   26050     271.7563   -30.540913      46753.5   -14583.546    1266.9243    -15850.47    789.95346 
   26100    277.03073    82.938846    46807.749   -14579.283    1291.5136   -15870.797    793.27731 
   26150    283.08231    303.86347    46729.332    -14569.42     1319.726   -15889.146    793.21916 
   26200    282.68069    66.609083    46784.449   -14582.755    1317.8537   -15900.609    795.28163 
   26250    292.92158    221.33706    46724.877   -14564.686    1365.5966   -15930.283    798.26286 
   26300     288.9162    231.73449    46757.728   -14590.911    1346.9235   -15937.835    800.92478 
   26350    283.45483   -95.615243    46699.066   -14565.346    1321.4627   -15886.809    801.57845 
   26400    274.00646   -30.160094     46722.98   -14604.634    1277.4145   -15882.049    802.45307 
   26450    264.73662   -78.621526     46579.78   -14619.584    1234.1986   -15853.783    803.33362 
   26500    278.79463    -90.85611    46769.412   -14608.999    1299.7369   -15908.736     808.7834 
   26550     281.6538   -176.69602    46799.007   -14647.222    1313.0663   -15960.289    811.07552 
   26600     271.6196   -180.33542    46680.594   -14647.735     1266.287   -15914.022    811.60223 
   26650    274.95658   -163.63796    46703.973   -14639.107     1281.844   -15920.951    812.79404 
   26700    278.35147   -25.459237    46705.832   -14611.438    1297.6709   -15909.109    814.56403 
   26750    271.57625    84.405986    46786.012   -14602.294    1266.0849   -15868.379    816.57404 
   26800    276.19653   -66.958026    46848.634   -14577.349    1287.6246   -15864.973    817.02726 
   26850    276.09478   -233.93589    46787.339   -14620.468    1287.1503   -15907.618    819.16236 
   26900    268.82259    21.755323    46727.237   -14643.213    1253.2474    -15896.46     820.8772 
   26950    280.75215    48.258697    46757.025   -14665.605    1308.8629   -15974.468    820.93236 
   27000     274.7321    138.31835     46738.07   -14686.635    1280.7975   -15967.432    823.26479 
   27050    276.37933   -2.8293919    46729.057   -14678.862    1288.4768   -15967.339    824.96234 
   27100    274.28506   -148.63525    46743.227   -14647.859    1278.7134   -15926.572    825.32323 
   27150     275.0819    67.682854    46685.266   -14623.621    1282.4282   -15906.049    824.21925 
   27200    283.92905    280.71118    46764.999   -14640.219    1323.6735   -15963.893    826.96321 
   27250    279.55608   -170.42084    46804.827   -14642.449    1303.2868   -15945.736     830.0606 
   27300     277.6451   -50.250969    46657.221   -14660.137    1294.3778   -15954.515    830.99826 
   27350    276.46738   -50.448923     46883.56   -14619.743    1288.8873   -15908.631    835.40288 
   27400    281.26065   -104.69377    46866.591       -14565    1311.2335   -15876.233    838.82616 
   27450    287.42878    62.128901    46973.336   -14566.586    1339.9892   -15906.575    840.57918 
   27500    284.33572    27.132845    46905.349   -14567.075    1325.5694   -15892.645    842.44114 
   27550    279.26086   -158.43532    46853.705   -14621.388    1301.9105   -15923.299    843.33675 
   27600    284.28311    66.814283    46797.628   -14606.564    1325.3241   -15931.888    842.81599 
   27650    277.46888   -226.32398    46753.075   -14635.386    1293.5563   -15928.942    842.18777 
   27700    291.15814     209.0383    46751.533   -14623.212    1357.3755   -15980.587    842.89315 
   27750    282.53135    88.114622    46858.469   -14565.443    1317.1575     -15882.6     847.0027 
   27800    283.11641    498.54686    46831.883   -14536.502     1319.885   -15856.387    848.49489 
   27850    281.59137      86.1844    46867.948   -14568.794    1312.7753   -15881.569    849.20734 
   27900    271.11409   -131.82488    46890.802   -14634.097    1263.9303   -15898.027     852.6987 
   27950    275.96279    257.36088    46900.729   -14646.691    1286.5349   -15933.226    853.94644 
   28000    275.37022    49.477047    46964.634   -14581.903    1283.7724   -15865.676    854.95335 
   28050     286.5485    89.295407    46803.047   -14543.776    1335.8854   -15879.662    856.80071 
   28100    285.35133    -92.25907    46762.533   -14567.898    1330.3042   -15898.202    856.40637 
   28150    283.02076   -198.04777    46833.946   -14592.584    1319.4391   -15912.023    859.37961 
   28200    277.79426    223.96924    46687.971   -14612.841    1295.0732   -15907.914    858.37143 
   28250    282.64995     215.7675    46777.107   -14571.713    1317.7103   -15889.423    861.97833 
   28300    271.99213    8.0640947     46789.25   -14612.017    1268.0237   -15880.041    862.73691 
   28350    279.05966   -17.754087    46806.047   -14600.037    1300.9725    -15901.01    863.68422 
   28400      274.507   -222.96799    46787.061   -14652.618     1279.748   -15932.366    864.50452 
   28450    275.52931    35.177897    46877.697   -14669.973    1284.5141   -15954.487    869.71125 
   28500    271.45457   -12.577299    46951.846   -14656.015    1265.5177   -15921.533    872.35461 
   28550    285.35045   -229.22765    46800.988   -14610.851    1330.3001   -15941.151    870.39785 
   28600    279.57779   -114.57392    46711.435   -14581.453     1303.388   -15884.841    869.60142 
   28650    282.59107    125.56305    46713.006     -14635.2    1317.4358   -15952.636    871.06663 
   28700    280.81852   -11.588695    46796.155   -14575.398    1309.1723   -15884.571    873.85463 
   28750    280.63118    66.936628    46719.455   -14586.125    1308.2989   -15894.424    874.66307 
   28800     282.2785    38.062372    46786.288   -14585.015    1315.9787   -15900.994    877.65305 
   28850    286.75567   -117.18033    46938.034   -14562.941    1336.8512   -15899.792    879.96913 
   28900    283.17879    31.523578    46728.301   -14568.597    1320.1758   -15888.773    881.11932 
   28950    283.29398   -14.417315    46753.738   -14610.771    1320.7128   -15931.484     883.0023 
   29000    275.85707    265.55895    46787.403   -14591.365     1286.042   -15877.407    883.92666 
   29050    281.67871    11.117807    47015.689   -14564.703    1313.1825   -15877.886    887.97218 
   29100    285.48858     152.9459    47053.281   -14504.213     1330.944   -15835.157    888.19813 
   29150    284.75595    -360.4408    46839.429    -14525.41    1327.5285   -15852.938    887.86508 
   29200    288.94885    49.634973      46715.7     -14540.4    1347.0758   -15887.476    887.14749 
   29250    281.91712   -430.57782    46799.538   -14576.537    1314.2939   -15890.831    890.70666 
   29300    278.33343   -123.64129    46687.944   -14590.613    1297.5868     -15888.2    891.09415 
   29350    272.59603    175.48657    46701.752   -14598.161    1270.8391       -15869    893.98611 
   29400    281.69415   -280.79207    46819.492   -14631.401    1313.2544   -15944.655    898.12777 
   29450    262.55894    285.48142    46716.082   -14667.265    1224.0463   -15891.311    897.99024 
   29500    271.70747    206.21219    46644.677   -14624.182    1266.6967   -15890.878    898.57563 
   29550    279.54618   -150.47284    46717.366   -14600.841    1303.2406   -15904.081      902.702 
   29600    275.04409   -69.756386    46797.728   -14580.061    1282.2519   -15862.313    905.39082 
   29650     280.4216    132.65768    46913.155   -14581.657    1307.3218   -15888.979    909.39388 
   29700    278.42761    156.73729    46865.958    -14604.23    1298.0259   -15902.256     911.3352 
   29750     276.2504   -208.62031    46682.959   -14632.898    1287.8758   -15920.774    909.19532 
   29800    279.02781   -92.908339     46658.43   -14631.989     1300.824   -15932.813    909.21401 
   29850    282.94203   -360.79793    46722.358   -14620.661     1319.072   -15939.733     910.9508 
   29900    282.71434    401.59965    46692.603    -14592.68    1318.0105    -15910.69    910.88179 
   29950    283.27719    109.44544    46936.686   -14589.637    1320.6345   -15910.272    915.69996 
   30000    276.30596   -49.811506    46980.495   -14615.483    1288.1348   -15903.618    917.06346 
   30050     278.5565   -76.354158    47014.361   -14611.643    1298.6268    -15910.27    918.00284 
   30100    287.32753     282.3111    46991.538   -14605.486    1339.5172   -15945.003    918.07701 
   30150    276.29046    219.41902    46998.417     -14604.7    1288.0625   -15892.763    918.89682 
   30200     277.8136   -57.940879     46825.92    -14623.87    1295.1634   -15919.033    917.45177 
   30250    279.04615   -251.13504    46820.398   -14616.346    1300.9095   -15917.256    919.32368 
   30300    287.96581    151.06159    46881.717   -14549.095    1342.4928   -15891.588    920.90035 
   30350     286.5763     49.58233    46851.762   -14554.811    1336.0149   -15890.826    920.86842 
   30400    284.69279    151.00229    46806.272   -14552.069    1327.2341   -15879.303     922.5751 
   30450    269.45886   -31.447352    46920.469   -14607.746    1256.2137   -15863.959    924.32263 
   30500    293.62665    188.27426    46839.476   -14570.036    1368.8836    -15938.92    927.25759 
   30550    278.73363    183.39718    47033.411   -14570.952    1299.4525   -15870.405    932.82329 
   30600    277.16388    162.78388    46906.991   -14561.713    1292.1344   -15853.847    931.47882 
   30650    277.59228   -106.19593    46867.847   -14603.305    1294.1316   -15897.437    933.02009 
   30700    272.34731    160.34785    46785.564   -14613.195    1269.6796   -15882.875    934.39253 
   30750    279.70356    12.846118    46870.924   -14577.622    1303.9743   -15881.596    937.39376 
   30800    286.22327   -193.52423    46798.754   -14540.621    1334.3691    -15874.99    937.24215 
   30850    273.02245    344.77466    46752.627   -14655.945    1272.8271   -15928.772    938.06701 
   30900    274.18397   -43.865113    46821.741   -14610.786    1278.2421   -15889.028    941.00764 
   30950    275.18462   -141.35431    46703.761   -14619.949    1282.9071   -15902.856    940.13772 
   31000    274.43604    173.56245    46754.147   -14640.959    1279.4172   -15920.376    941.03052 
   31050    274.43637   -357.63957    46744.933   -14659.133    1279.4188   -15938.552    940.20536 
   31100    276.93211   -161.10715    46614.523   -14668.636    1291.0539    -15959.69    939.30461 
   31150     273.6036   -1.4189565    46610.281   -14662.128    1275.5364   -15937.665    942.04755 
   31200    270.12616   -249.76826     46576.78    -14664.95    1259.3246   -15924.274    941.35057 
   31250    275.49697   -158.78306    46506.124   -14639.373    1284.3633   -15923.737    943.18847 
   31300    278.10012   -10.809689    46710.561     -14537.9    1296.4991     -15834.4    946.54652 
   31350    285.44616    68.619424    46678.314   -14510.014    1330.7463   -15840.761    947.70533 
   31400    281.83492     16.54931    46726.137    -14588.22    1313.9107   -15902.131    951.36085 
   31450    274.45025    388.61764    46750.789   -14609.942    1279.4835   -15889.425    951.70703 
   31500    281.97686   -203.80861    46738.125   -14540.114    1314.5725   -15854.686    953.06752 
   31550    278.54607      118.111    46608.127    -14572.72    1298.5781   -15871.298    952.56344 
   31600    277.16362    52.706939    46708.639   -14572.165    1292.1332   -15864.298    957.57557 
   31650    276.43785    -435.8476    46686.407   -14588.776    1288.7496   -15877.525    958.33544 
   31700     284.8731    1.7097146    46724.786   -14598.621    1328.0747   -15926.695    959.12419 
   31750    283.98775    10.042702    46682.384   -14562.562    1323.9472   -15886.509    959.47378 
   31800    283.17895    355.31957    46941.424   -14551.263    1320.1766    -15871.44    964.29212 
   31850    284.93966   -164.99905      46966.7   -14553.924     1328.385   -15882.309    965.17208 
   31900    282.86388   -41.378306     46874.94   -14548.717    1318.7077   -15867.425    965.48894 
   31950    280.79173   -181.90125    46752.859    -14539.21    1309.0474   -15848.258    963.71281 
   32000    289.16893   -212.90181    46707.645   -14536.912    1348.1018   -15885.014    964.53295 
   32050    274.30043  -0.14304078     46591.98   -14572.642     1278.785   -15851.427     964.3733 
   32100    280.55122    345.60513    46598.804   -14569.786    1307.9261   -15877.712    966.45601 
   32150    282.87684   -157.17398    46576.539   -14575.286    1318.7681   -15894.054     970.3963 
   32200    274.86863    267.03318    46533.891    -14560.36     1281.434   -15841.794    972.55731 
   32250    281.09066    188.68946    46685.406   -14543.037     1310.441   -15853.478    976.37817 
   32300    281.01371   -163.08468    46712.859   -14533.093    1310.0823   -15843.175    979.42499 
   32350    288.11603    -61.72298    46627.369    -14536.14    1343.1932   -15879.334    976.35473 
   32400    281.83942    45.047684    46758.294   -14582.009    1313.9317    -15895.94    980.23043 
   32450    280.13696    207.13145    46809.305   -14611.233    1305.9948   -15917.228    983.11151 
   32500    272.17622    181.24817    46795.724   -14599.915     1268.882   -15868.797    985.07573 
   32550    280.72315    1.5810454    46887.793   -14550.592    1308.7276    -15859.32    989.39634 
   32600    271.03741    62.927809    46871.224   -14589.135    1263.5729   -15852.708    992.50733 
   32650    286.06908     251.2963    46962.248   -14585.206    1333.6503   -15918.856    996.14079 
   32700    272.12962    404.91742    46850.624   -14645.508    1268.6647   -15914.173    996.65418 
   32750    282.57999   -270.73349    46898.865   -14639.729    1317.3842   -15957.113    998.82763 
   32800    277.93314     -21.8054    46859.724   -14664.345    1295.7207   -15960.066    998.98127 
   32850    285.92258    -255.9067    46812.438    -14649.23    1332.9673   -15982.197     1000.051 
   32900    272.99098    173.50415    46763.488   -14664.838    1272.6804   -15937.518    1000.7775 
   32950    272.77558   -387.58029    46638.356   -14698.949    1271.6762   -15970.625    1001.9033 
   33000    275.98425   -311.80782    46603.425   -14661.696     1286.635   -15948.331    1003.4948 
   33050    273.97036  -0.79859191    46702.861   -14636.423    1277.2462    -15913.67    1005.4032 
   33100    281.79466     311.3923    46811.918   -14559.964     1313.723   -15873.687    1007.1779 
   33150    282.82651    -156.7556    47020.015   -14572.629    1318.5335   -15891.162    1010.2353 
   33200    275.59698     139.8121    47017.328   -14600.438    1284.8295   -15885.268    1011.4852 
   33250    279.46787    263.93446    46933.867    -14583.66    1302.8756   -15886.536    1009.0117 
   33300     282.4115    205.73016    47098.678   -14590.724    1316.5987   -15907.323    1011.9967 
   33350    269.56999    278.84975    47106.238   -14654.387    1256.7318   -15911.119    1014.6626 
   33400     276.2937   -166.57675    47110.975   -14628.127    1288.0776   -15916.205    1017.6287 
   33450    272.15882   -216.12328    46978.167   -14638.088    1268.8009   -15906.889     1015.058 
   33500    276.96698    271.14513    46924.887   -14639.207    1291.2164   -15930.423    1016.6736 
   33550    275.95595   -143.93726    46843.366   -14618.346     1286.503   -15904.849    1017.1382 
   33600    275.46157   -255.92886    46701.531    -14603.66    1284.1982   -15887.858    1016.3436 
   33650    281.85737    28.855854    46527.111   -14580.432    1314.0154   -15894.448    1015.4792 
   33700    280.85005    221.25153    46637.248   -14609.044    1309.3193   -15918.364    1017.3792 
   33750    282.12367    44.030418    46843.913   -14591.013    1315.2568    -15906.27    1021.4414 
   33800    282.38626    239.14008    47010.738   -14580.762     1316.481   -15897.243    1027.9642 
   33850     276.2826   -333.84765    46921.089   -14604.307    1288.0259   -15892.333    1028.3019 
   33900    274.02463   -43.970409    46774.405   -14609.174    1277.4993   -15886.673    1027.8809 
   33950    286.37973    -56.29926    46803.909   -14621.965    1335.0986   -15957.064    1027.9771 
   34000    281.42828    58.388692    46794.439   -14575.773     1312.015   -15887.788    1028.8438 
   34050    275.42537    310.28968    46911.454   -14605.298    1284.0295   -15889.327    1031.1028 
   34100    277.52861   -12.007477    46983.281    -14598.28    1293.8348   -15892.114    1035.2819 
   34150    281.65175    240.72776    47013.911   -14580.663    1313.0568   -15893.719    1037.8961 
   34200    278.70638     60.93375    47082.658   -14608.418    1299.3255   -15907.743    1040.4348 
   34250    272.16117     154.6732    46922.292   -14646.623    1268.8118   -15915.435    1038.4133 
   34300    279.62097   -27.067929    47038.766   -14619.319    1303.5893   -15922.908    1042.2517 
   34350    282.08739   -117.55551    46907.209   -14564.795    1315.0877   -15879.883    1041.3862 
   34400    283.65442    142.33299    46864.241   -14569.116    1322.3932   -15891.509    1042.9922 
   34450    274.67098   -53.471278    46863.189   -14598.412    1280.5125   -15878.925    1045.9725 
   34500    286.27755   -386.28251    46641.162    -14597.83    1334.6222   -15932.453    1046.4047 
   34550    281.05467    169.41828    46715.713   -14573.445    1310.2732   -15883.718    1050.5299 
   34600    272.75243    308.24415    46776.509   -14618.587    1271.5683   -15890.156    1054.7214 
   34650    275.67267    92.222698    46784.528   -14609.193    1285.1824   -15894.376    1054.7325 
   34700    278.40081    273.91512    46703.444   -14627.525    1297.9009   -15925.426    1057.0101 
   34750    267.79935   -124.44777     46675.87   -14627.937    1248.4771   -15876.414    1058.5324 
   34800    271.54781    138.79973    46684.335   -14643.201    1265.9523   -15909.153    1061.6699 
   34850     278.3598   -211.61779    46649.274    -14614.04    1297.7098    -15911.75    1064.0419 
   34900    262.26677    59.210654    46608.756   -14608.073    1222.6842   -15830.757    1065.4238 
   34950     276.9109   -88.771952    46582.569   -14656.068     1290.955   -15947.023    1066.1842 
   35000    265.37218   -134.15205    46607.588   -14654.728    1237.1617    -15891.89    1066.8763 
   35050    289.31471    9.5115599    46540.191   -14615.741    1348.7814   -15964.522    1067.8977 
   35100     280.3841    93.220202    46578.017   -14588.877     1307.147   -15896.024    1067.0267 
   35150    277.91793    199.42379    46786.006   -14621.102    1295.6498   -15916.751    1070.5562 
   35200     278.1839    19.128706    46809.111   -14605.026    1296.8897   -15901.916    1072.3877 
   35250    281.85533   -97.855742    46815.739   -14611.356    1314.0058   -15925.362    1072.8839 
   35300    278.21061   -153.54205    46806.551   -14625.971    1297.0142   -15922.985    1075.2203 
   35350    283.80709    -7.510012    46885.726   -14595.001    1323.1049   -15918.106    1077.4276 
   35400    280.50042   -75.394551    46832.696   -14586.189    1307.6893   -15893.878    1075.2693 
   35450     281.6532    22.116487    46640.256   -14575.888    1313.0635   -15888.951    1071.9903 
   35500    282.02259    280.57852    46681.097    -14552.49    1314.7856   -15867.275    1073.1916 
   35550    273.07204   -71.841607    46708.747   -14601.557    1273.0583   -15874.616    1072.6474 
   35600    285.21855    211.24582    46826.388   -14569.689    1329.6852   -15899.374     1075.885 
   35650    278.05571   -182.77985    46732.436   -14597.985    1296.2921   -15894.277    1076.7781 
   35700    280.51728   -93.060517    46758.925   -14560.789    1307.7679   -15868.557    1079.2043 
   35750    276.19548    144.45339     46735.59   -14529.026    1287.6197   -15816.645    1082.7245 
   35800    282.33435    191.06184    46698.136    -14537.78     1316.239   -15854.019    1084.9579 
   35850    280.54248    188.66365    46527.016   -14556.746    1307.8854   -15864.632    1084.0317 
   35900     280.5528    144.30495     46645.81    -14486.43    1307.9335   -15794.364    1086.6425 
   35950    294.77274    119.15728    46663.201   -14467.024    1374.2267   -15841.251    1087.2017 
   36000    292.52598    270.15174    46730.172   -14469.487    1363.7523    -15833.24    1088.7094 
   36050    282.82548   -258.70357    46716.674   -14489.856    1318.5287   -15808.385    1088.6282 
   36100    273.35929    285.71402    46738.368   -14510.078    1274.3975   -15784.475    1092.9806 
   36150    279.10712     222.5357    46567.922   -14544.429    1301.1937   -15845.623    1090.8448 
   36200    274.96776    88.463498    46522.268   -14558.575    1281.8961   -15840.471    1092.0554 
   36250    278.56111   -20.806355    46501.059   -14575.433    1298.6483   -15874.081    1091.7814 
   36300    280.21662    516.70376    46555.269   -14627.845    1306.3662   -15934.211    1092.3676 
   36350     280.9841    226.06338    46757.104   -14590.285    1309.9442   -15900.229    1094.5365 
   36400    278.97121   -30.968383     46829.24   -14539.606    1300.5601   -15840.166    1097.6133 
   36450    280.70388    234.09926    46834.567   -14521.669    1308.6378   -15830.307    1100.2294 
   36500    279.91955   -298.87141    46813.382    -14593.14    1304.9813   -15898.121    1101.5827 
   36550    276.23264   -207.83126    46786.928   -14623.742     1287.793   -15911.535    1104.9507 
   36600    271.29807   -17.036442    46621.773   -14661.082    1264.7881   -15925.871    1103.3695 
   36650    271.20101   -85.119293    46646.428   -14628.072    1264.3356   -15892.407    1104.7853 
   36700    281.83359   -264.65823    46741.664   -14608.436    1313.9045   -15922.341    1106.9273 
   36750    283.94257   -55.677078    46734.395   -14598.336    1323.7366   -15922.073    1107.5177 
   36800    274.11273    22.546317    46665.327    -14612.78      1277.91    -15890.69    1106.1407 
   36850    286.27638   -124.34948    46662.669   -14629.186    1334.6167   -15963.803    1106.8476 
   36900    283.64358   -76.520533    46746.003   -14604.421    1322.3426   -15926.763    1109.7724 
   36950    278.89307    84.385612    46791.812   -14593.084    1300.1958    -15893.28     1112.566 
   37000    278.62037   -236.75338    46832.611    -14602.36    1298.9245   -15901.284    1113.8537 
   37050    290.96551    260.96479    46766.683   -14571.052    1356.4774   -15927.529    1114.7058 
   37100    286.39315    75.417521    46856.748   -14558.024    1335.1611   -15893.185     1117.109 
   37150    283.37169    58.854642    46790.523   -14635.818    1321.0751   -15956.893    1118.7916 
   37200    279.28115    153.10382    46791.259   -14660.147    1302.0051   -15962.152     1120.405 
   37250     281.4107   -25.629041    46805.093   -14636.719     1311.933   -15948.652    1123.1837 
   37300    269.21416   -121.30151    46754.749   -14682.575    1255.0729   -15937.648    1123.3204 
   37350    280.80163   -175.15402    46868.266   -14631.713    1309.0935   -15940.806    1125.1008 
   37400    279.91542      191.318    46834.587   -14603.222     1304.962   -15908.184    1124.3317 
   37450    274.09984   -4.0148899    46816.235   -14656.204    1277.8499   -15934.054    1123.7017 
   37500     278.0667    258.57036     46720.51   -14627.971    1296.3433   -15924.315    1123.9524 
   37550    272.00288    75.674154    46798.298    -14621.31    1268.0739   -15889.384    1127.1047 
   37600     284.7751   -491.87104    46808.671   -14595.767    1327.6178   -15923.385     1130.331 
   37650    281.61883    268.83673    46816.136   -14597.602    1312.9033   -15910.505    1132.4659 
   37700    269.50363   -405.73304     46744.45   -14681.212    1256.4224   -15937.635    1133.2388 
   37750    274.69701   -2.7987062    46621.102   -14690.938    1280.6339   -15971.571    1133.8224 
   37800     271.4081   -254.91774    46715.546   -14669.386     1265.301   -15934.687    1133.8393 
   37850    275.08836   -77.864647    46608.725   -14649.476    1282.4583   -15931.934    1135.4732 
   37900    272.84091    456.44931    46602.577   -14632.156    1271.9807   -15904.137    1137.4037 
   37950     276.3515    110.31554    46556.543   -14628.634    1288.3471   -15916.981    1138.0372 
[...]
   91550    280.58871    -21.33218    46817.308    -14563.97    1308.1009   -15872.071    2903.7114 
   91600    279.43974    321.62606    46770.568   -14568.701    1302.7444   -15871.445     2903.239 
   91650    284.54496   -345.62882    46812.605   -14604.766    1326.5449   -15931.311      2905.75 
   91700    283.65973    -245.6545    46749.016   -14637.744     1322.418   -15960.162    2905.7783 
   91750    276.27147    79.011112    46688.856   -14641.955     1287.974   -15929.929    2909.6333 
   91800    277.10481   -185.34747      46765.3   -14614.033     1291.859   -15905.892    2913.3862 
   91850    285.15027   -25.189711    46648.853   -14581.802    1329.3668   -15911.169    2912.6659 
   91900    277.56723    424.57908    46757.206   -14626.094    1294.0148   -15920.109    2922.0208 
   91950    284.66067   -30.918553    46740.855   -14614.469    1327.0843   -15941.553    2919.8401 
   92000    277.26058    165.85748    46788.575   -14625.021    1292.5852   -15917.606    2926.2523 
   92050    274.92929    52.150165    46921.544    -14651.74    1281.7168   -15933.456    2929.8679 
   92100    264.76314   -129.09656    46910.268   -14694.439    1234.3223   -15928.762    2931.5705 
   92150    268.58277    98.293057    46740.539   -14689.791    1252.1294    -15941.92    2928.5468 
   92200    285.66768    122.96098    46904.474   -14601.866     1331.779   -15933.645     2941.347 
   92250    289.25641   -91.513652     46931.72   -14580.977    1348.5096   -15929.487    2939.2256 
   92300    289.11156    66.565936    46975.039   -14510.612    1347.8343   -15858.446    2942.8131 
   92350    286.87637   -191.94725    47065.799    -14482.64    1337.4139   -15820.054    2947.4406 
   92400    276.94927    130.15633    47078.992   -14531.291    1291.1339   -15822.425    2950.7857 
   92450    283.32255   -232.70957    47029.679   -14592.159     1320.846   -15913.005    2948.0052 
   92500    279.14683   -216.40661    46818.168   -14592.063    1301.3789   -15893.442     2939.698 
   92550    281.96664    110.70042    46781.322   -14619.538    1314.5248   -15934.063     2941.353 
   92600    276.27556   -38.005757    46733.761   -14586.509    1287.9931   -15874.502    2940.8344 
   92650    274.08099    515.31592    46698.796   -14606.992     1277.762   -15884.754    2940.1063 
   92700    276.28494   -400.00081    46725.837   -14617.199    1288.0368   -15905.236    2941.4118 
   92750     279.5262   -152.97521    46752.612   -14611.201    1303.1475   -15914.349    2944.4967 
   92800    282.70328    85.405852    46670.939   -14622.565     1317.959   -15940.524    2940.8649 
   92850    281.54527   -171.98573    46692.443   -14579.957    1312.5603   -15892.517    2942.8101 
   92900    280.58972    50.928981    46753.723   -14568.769    1308.1056   -15876.875    2947.7594 
   92950    276.71158   -37.115429    46763.068   -14598.765    1290.0257   -15888.791    2951.7914 
   93000    269.30625    218.11933    46858.799   -14601.994    1255.5022   -15857.496    2958.6483 
   93050    289.00064    -235.6565      46713.4   -14501.587    1347.3172   -15848.904    2948.7149 
   93100    285.51221    116.63613    46664.659   -14518.986    1331.0542    -15850.04    2945.0854 
   93150    278.97698    392.70901    46697.127   -14564.109     1300.587   -15864.696    2950.5856 
   93200     287.6696   -561.11466    46719.433    -14568.27    1341.1119   -15909.382    2951.5817 
   93250    278.81148    83.060103    46818.798   -14561.701    1299.8155   -15861.516    2956.3615 
   93300    290.06049   -57.973555    46863.137   -14566.027    1352.2582   -15918.285    2958.2404 
   93350     281.6994    -439.1374    46785.389   -14578.862    1313.2789   -15892.141    2956.3126 
   93400    282.40513    -89.67036    46682.448   -14632.935     1316.569   -15949.504    2952.8475 
   93450    270.61286    133.04084    46758.064   -14627.345    1261.5936   -15888.939    2954.4343 
   93500    281.14605   -186.17831    46897.179   -14626.732    1310.6992   -15937.432    2963.7444 
   93550    273.81431   -337.77114     46829.07   -14697.171    1276.5188    -15973.69    2961.3606 
   93600    271.39572    -111.0466     46588.35   -14693.191    1265.2433   -15958.434    2952.9239 
   93650    281.41174   -115.27427     46599.32   -14680.564    1311.9379   -15992.502    2953.4128 
   93700    284.58453    173.68333    46763.204   -14668.595    1326.7294   -15995.324    2961.3902 
   93750    275.85333   -111.83833    46777.376   -14655.376    1286.0246   -15941.401    2963.4372 
   93800    278.87497    220.25586    46982.155    -14596.34    1300.1115   -15896.451     2975.769 
   93850    279.61472   -10.838304    46936.961   -14597.837    1303.5602   -15901.397    2975.3401 
   93900    279.66984   -149.54441    46887.146   -14603.736    1303.8171   -15907.553    2974.8789 
   93950    270.08852    35.745661    46733.677   -14658.566    1259.1492   -15917.715    2971.1567 
   94000    270.13213   -199.87072    46491.811   -14655.486    1259.3525   -15914.839    2962.6039 
   94050    277.09927    365.93979    46509.459   -14645.617    1291.8332    -15937.45    2963.0933 
   94100    270.14959    -149.8945    46580.417   -14640.109    1259.4338   -15899.543    2969.0768 
   94150    274.74102   -82.181873    46716.299   -14631.108    1280.8391   -15911.947    2976.9349 
   94200    276.94207    54.175371    46690.721   -14633.769    1291.1003   -15924.869    2977.6904 
   94250    277.72483    45.673482    46727.134   -14621.353    1294.7495   -15916.103    2980.8075 
   94300    275.93555    322.77395    46820.511    -14574.99    1286.4079   -15861.398    2983.2402 
   94350    288.35097   -55.637627     46863.48   -14542.031    1344.2884   -15886.319    2984.4481 
   94400    296.66625   -55.120425    46774.115   -14555.309    1383.0542   -15938.363    2982.8607 
   94450    284.08787   -414.99969    46893.272   -14503.856    1324.4139    -15828.27    2987.0201 
   94500    289.69737   -177.66283    46750.326   -14503.132    1350.5654   -15853.697    2983.7165 
   94550    275.35372    144.99102    46795.955   -14533.703    1283.6954   -15817.398    2988.4542 
   94600     276.3258    108.01233    46829.137   -14594.216    1288.2273   -15882.443    2990.9739 
   94650    278.68627   -207.23282    46858.611   -14565.647    1299.2318   -15864.879    2996.9863 
   94700    278.17224   -174.22979    46768.196   -14606.921    1296.8353   -15903.756    2995.8672 
   94750    283.92123    6.9690917    46856.622   -14581.684    1323.6371   -15905.321    3003.4182 
   94800    275.01847    219.04529    47012.962    -14604.61    1282.1325   -15886.743     3011.042 
   94850     279.1325    98.970233    47094.366    -14569.67    1301.3121   -15870.982    3017.2988 
   94900    282.68013   -34.200659    47083.967    -14540.89     1317.851   -15858.741    3017.0059 
   94950    289.01155    139.76923     46920.06   -14578.723    1347.3681   -15926.091    3014.5012 
   95000    284.78933   -74.262769    46915.445   -14545.693    1327.6842   -15873.377    3019.1743 
   95050    271.12383   -49.069007    46887.487   -14526.539    1263.9757   -15790.515    3019.1728 
   95100    278.91344    88.943267     46759.83   -14573.667    1300.2908   -15873.958    3016.8659 
   95150    269.94821   -157.80922    46638.095   -14570.639     1258.495   -15829.134    3014.5802 
   95200    280.55079    128.50239    46602.755   -14563.919    1307.9241   -15871.843    3016.2151 
   95250    287.69121    69.517832    46696.854    -14549.25    1341.2127   -15890.462    3024.2253 
   95300    287.83056   -96.712917    46864.292   -14474.265    1341.8623   -15816.128     3034.288 
   95350    286.48015    53.065501    46879.295   -14540.101    1335.5667   -15875.668    3032.5982 
   95400    287.29643    230.79005    46742.945   -14528.324    1339.3722   -15867.696    3026.5943 
   95450    281.82195    108.37347    46912.368   -14527.434    1313.8502   -15841.284    3037.3276 
   95500    282.90971    65.903833    46828.437   -14569.444    1318.9214   -15888.366    3033.2925 
   95550    278.09825    232.30969    46816.081    -14582.24    1296.4904    -15878.73    3034.4449 
   95600     279.5664   -40.908338    46968.401   -14568.052    1303.3349   -15871.387    3043.3263 
   95650     283.1366   -47.655089    46920.156    -14598.38    1319.9791   -15918.359    3044.9071 
   95700    268.06946    250.20726    46738.892     -14622.4    1249.7363   -15872.136    3038.8059 
   95750    273.58694    80.677945     46909.29   -14636.379    1275.4587   -15911.838    3046.4867 
   95800    271.58242    30.858795    46954.029   -14624.701    1266.1137   -15890.814    3049.0447 
   95850    279.75341     233.3004    46910.179   -14595.398    1304.2068   -15899.605    3051.3864 
   95900    278.09599   -86.213089    46855.881   -14609.319    1296.4799   -15905.798    3051.3004 
   95950    276.43305   -223.61257    46847.687   -14654.112    1288.7273   -15942.839    3050.4917 
   96000    275.71849    225.54974    46840.879   -14668.558     1285.396   -15953.954    3051.6938 
   96050    282.71286    150.71046    46980.548   -14643.753    1318.0036   -15961.757    3060.5915 
   96100    277.45832    33.384154    46808.456   -14619.595     1293.507   -15913.102    3055.0146 
   96150    278.83843    654.81509    46853.273    -14633.37    1299.9411   -15933.311    3059.9095 
   96200    274.72268   -279.45883    46956.528   -14642.049    1280.7535   -15922.803    3067.6208 
   96250    269.77285    49.970083    46858.606    -14619.91    1257.6775   -15877.587     3066.215 
   96300    276.60015    21.159117    46873.014   -14599.153    1289.5063   -15888.659    3066.9468 
   96350    276.60493    110.30416    46885.092   -14558.123    1289.5286   -15847.652    3071.0753 
   96400    275.67339   -15.525694    46786.819   -14584.807    1285.1858   -15869.993     3065.764 
   96450    277.66173    389.87162    46715.377   -14590.575    1294.4554    -15885.03    3065.0327 
   96500    283.07208   -254.03277    46766.463   -14573.165    1319.6783   -15892.843    3066.1143 
   96550    277.48496     160.4396     46637.55   -14615.178    1293.6312    -15908.81    3063.9152 
   96600     274.2876   -148.66784    46764.144   -14628.505    1278.7252    -15907.23    3067.3285 
   96650    274.38017    189.23093    46682.425   -14635.442    1279.1568   -15914.599    3063.9186 
   96700    270.13009     51.25429    46678.903   -14698.592     1259.343   -15957.935    3065.8239 
   96750    270.88922    152.16624    46734.132   -14716.455     1262.882   -15979.337    3069.2332 
   96800    274.59685   -212.39943    46840.241   -14665.986    1280.1669   -15946.153    3072.0314 
   96850    276.43942   -393.99524     46740.41   -14630.398     1288.757   -15919.155     3070.996 
   96900    270.21478    105.28954    46736.261   -14605.022    1259.7378   -15864.759    3073.0748 
   96950    279.41275    124.37834    46762.204   -14614.896    1302.6186   -15917.515    3074.5935 
   97000    283.40942   -263.99294    46777.866   -14586.034     1321.251   -15907.285    3078.2486 
   97050    284.63222   -8.1414302    46780.378   -14559.429    1326.9517   -15886.381    3081.9887 
   97100    273.83976    109.33797    46868.759    -14648.74    1276.6374   -15925.377    3086.1827 
   97150    271.26903    290.79769    46948.296   -14601.196    1264.6527   -15865.848    3088.7744 
   97200    274.88854     95.49569    46859.984   -14612.391    1281.5268   -15893.917    3085.5831 
   97250    275.95905   -53.061756    46830.793   -14606.127    1286.5175   -15892.645    3090.9424 
   97300    269.60561   -51.254915    46802.247   -14661.528    1256.8978   -15918.426    3091.6059 
   97350    282.15508   -31.616139    46747.026   -14641.013    1315.4033   -15956.416    3091.3006 
   97400    282.01714    57.034957    46866.045   -14632.574    1314.7602   -15947.335    3098.7275 
   97450    284.24457    32.474514    46819.202   -14587.915    1325.1445   -15913.059    3094.6851 
   97500    288.78587   -148.42479    46805.663   -14556.987    1346.3159   -15903.303    3092.4103 
   97550    287.54427     148.1811    46661.719   -14589.077    1340.5276   -15929.605    3086.4454 
   97600      270.315    257.71071    46795.479   -14614.251     1260.205   -15874.456    3091.4436 
   97650    278.37172   -139.02141    46824.309   -14633.916    1297.7653   -15931.682    3093.0096 
   97700    285.96607    77.661655    46771.821   -14564.487    1333.1701   -15897.657    3091.5478 
   97750    290.42274    202.15935    46829.333   -14554.212     1353.947   -15908.159    3094.4028 
   97800     280.1335   -160.31953    46881.703   -14575.294    1305.9787   -15881.273    3098.4743 
   97850    281.86291   -136.14346    46944.188   -14533.032    1314.0412   -15847.073    3103.6921 
   97900    290.45826   -117.57311    46840.878   -14494.412    1354.1126   -15848.525    3101.5108 
   97950    286.43619    -6.978055    46831.485   -14582.117    1335.3618   -15917.479    3100.2354 
   98000     288.3529   -305.04395     46787.15   -14569.405    1344.2975   -15913.703    3099.7106 
   98050    275.87692   -98.670731    46645.409    -14624.11    1286.1346   -15910.244    3089.9787 
   98100    278.87256    46.584363    46596.047   -14608.136    1300.1002   -15908.237    3085.4735 
   98150    277.17947    180.86342    46591.015   -14597.457    1292.2071   -15889.664    3087.5894 
   98200    286.55483    28.149391    46834.901   -14586.694    1335.9149   -15922.608    3102.0608 
   98250    272.39568   -39.174114    46774.229   -14593.504    1269.9051   -15863.409    3102.2816 
   98300     266.5551    223.94602    46733.743   -14630.539    1242.6764   -15873.216    3101.5478 
   98350    272.38823    -29.76188    46814.367   -14613.847    1269.8704   -15883.718    3106.6972 
   98400    270.89776   -200.91524    46606.762   -14658.196    1262.9218   -15921.118    3099.2501 
   98450    283.33109   -84.274502    46637.465   -14621.903    1320.8859   -15942.789    3101.6206 
   98500    278.68442    98.059625    46738.202   -14628.735    1299.2231   -15927.958    3104.4359 
   98550    277.58726   -110.07923    46814.753   -14638.826    1294.1082   -15932.934    3108.6049 
   98600    272.87176   -287.75187    46644.264   -14680.687    1272.1246   -15952.811    3101.4771 
   98650    266.79143    167.13018    46648.572   -14675.965    1243.7781   -15919.743    3105.0723 
   98700    275.63899   -413.70831    46558.228   -14666.979    1285.0254   -15952.005    3101.7507 
   98750    270.68495   -80.883908    46578.039   -14648.112    1261.9297   -15910.042    3105.4507 
   98800    270.95562   -422.69832     46687.85   -14660.268    1263.1916    -15923.46    3110.6328 
   98850    275.02223    -262.2743     46750.81   -14666.314      1282.15   -15948.464    3119.7314 
   98900    275.07982    424.47244    46761.511   -14640.498    1282.4185   -15922.917    3126.7385 
   98950    271.31298    200.56445    46888.201   -14627.947    1264.8576   -15892.805    3131.4728 
   99000    284.38329    263.44217    46916.748   -14620.947    1325.7912   -15946.739    3133.5259 
   99050    284.33367   -1.8485221    47050.051   -14570.943    1325.5599   -15896.503    3144.3655 
   99100    275.58436   -87.150588    46885.629   -14560.751    1284.7707   -15845.522    3138.7243 
   99150    284.77068    -327.6197     46875.98   -14526.429    1327.5972   -15854.026    3135.9068 
   99200    276.98651    365.54077    46725.617   -14563.409    1291.3075   -15854.717    3133.1545 
   99250    272.98187    218.64853    46745.614   -14574.547    1272.6379   -15847.185    3134.4996 
   99300    283.35705   -140.70551    46768.034    -14546.99    1321.0069   -15867.997    3139.2967 
   99350    271.93817   -43.556836    46704.634   -14539.409    1267.7722   -15807.181    3139.1164 
   99400    292.47434    17.926136    46775.004   -14454.547    1363.5115   -15818.058    3143.8825 
   99450    292.62261   -264.91648    46879.012   -14436.091    1364.2028   -15800.294    3150.5307 
   99500    292.63548   -4.6424298    46876.204   -14466.005    1364.2628   -15830.268     3153.822 
   99550    283.41959    79.503768    46743.765    -14496.96    1321.2984   -15818.258    3152.7365 
   99600    285.86656    180.95205    46934.473   -14461.544    1332.7062    -15794.25    3162.7932 
   99650    284.16366    65.471369     46963.68   -14471.154    1324.7673   -15795.921    3165.4223 
   99700    278.76986    232.53091    46923.209   -14496.842    1299.6214   -15796.464    3162.5844 
   99750    285.40634    -132.1518     46878.97   -14508.516    1330.5606   -15839.077    3159.5133 
   99800    284.30291   -162.66881     46951.19   -14530.726    1325.4165   -15856.142    3167.2728 
   99850          279      143.525    46869.068   -14516.125    1300.6943    -15816.82    3164.2595 
   99900    271.28053    187.42694    46973.794   -14563.683    1264.7063    -15828.39    3171.8199 
   99950    276.41231   -54.668056    46781.384   -14564.005    1288.6306   -15852.636    3165.3417 
  100000    278.32424   -118.61147     46790.14   -14591.622     1297.544   -15889.166    3169.1455 
  100050    285.83163    330.78405    46873.648   -14532.883    1332.5433   -15865.426    3174.8676 
  100100    290.30561    105.72074    46954.713   -14525.488    1353.4009   -15878.889    3181.6865 
  100150    290.36444   -91.455903     46909.56    -14531.49    1353.6752   -15885.165    3181.4299 
  100200     289.4163   -211.41149    46932.618   -14553.358     1349.255   -15902.613    3184.3853 
  100250    283.35028    -165.2163    46833.568   -14542.987    1320.9753   -15863.962    3178.7102 
  100300    288.60757    260.31276    46940.982   -14560.667    1345.4847   -15906.151     3182.438 
  100350    280.77645   -80.128788    46815.213   -14591.631    1308.9761   -15900.607    3176.9581 
  100400    280.89343     166.3246    46610.049   -14562.605    1309.5215   -15872.126    3167.4805 
  100450    282.98396   -98.199896    46514.572   -14533.853    1319.2675   -15853.121    3163.3136 
  100500    288.13429    8.9415431     46608.16   -14526.031    1343.2783   -15869.309     3168.249 
  100550    284.15261    216.68023    46776.218   -14610.064    1324.7157    -15934.78    3177.4715 
  100600    282.14315    -39.90545    46840.847   -14576.193    1315.3477   -15891.541    3186.7851 
  100642    278.33794    -345.8115    46884.126   -14620.539    1297.6078   -15918.146    3186.8991 
Loop time of 88.587 on 10 procs for 100000 steps with 1565 atoms

Performance: 975.313 ns/day, 0.025 hours/ns, 1128.834 timesteps/s
99.2% CPU use with 10 MPI tasks x no OpenMP threads

MPI task timing breakdown:
Section |  min time  |  avg time  |  max time  |%varavg| %total
---------------------------------------------------------------
Pair    | 59.152     | 70.558     | 73.793     |  48.9 | 79.65
Neigh   | 3.1573     | 3.9324     | 4.1681     |  14.3 |  4.44
Comm    | 7.3685     | 10.336     | 22.04      | 131.8 | 11.67
Output  | 0.083498   | 0.092965   | 0.16305    |   7.7 |  0.10
Modify  | 2.6001     | 3.132      | 3.628      |  22.5 |  3.54
Other   |            | 0.5351     |            |       |  0.60

Nlocal:    156.5 ave 163 max 150 min
Histogram: 1 1 1 2 0 0 2 1 1 1
Nghost:    757.3 ave 770 max 749 min
Histogram: 1 0 4 1 2 0 1 0 0 1
Neighs:    0 ave 0 max 0 min
Histogram: 10 0 0 0 0 0 0 0 0 0
FullNghs:  5252.2 ave 5490 max 5021 min
Histogram: 2 0 1 0 3 0 2 0 0 2

Total # of neighbors = 52522
Ave neighs/atom = 33.5604
Neighbor list builds = 13002
Dangerous builds = 0

undump              1
reset_timestep      0
#unfix               2
#unfix               3
#unfix               4


################################################
#######           Insert Ice           #########
################################################

log                 log.${NAME}.eq_all
log                 log.setup_atoms_280K_00.eq_all
