
# Set production fixes - Nose/Hoover
#
fix                 2 all nph iso ${PRES} ${PRES} ${PCOUPL}
fix                 2 all nph iso -1000 ${PRES} ${PCOUPL}
fix                 2 all nph iso -1000 -1000 ${PCOUPL}
fix                 2 all nph iso -1000 -1000 10000.0
fix                 3 all temp/csvr ${TEMP} ${TEMP} ${TCOUPL} 837492
fix                 3 all temp/csvr 275 ${TEMP} ${TCOUPL} 837492
fix                 3 all temp/csvr 275 275 ${TCOUPL} 837492
fix                 3 all temp/csvr 275 275 5000.0 837492

# Define Order parameter
#
compute             2 all orientorder/atom nnn NULL cutoff 3.5
thermo              200
thermo_style        custom step temp press vol etotal ke pe c_1[4]

# Run 1ns simulation
dump		    1 all custom 400 prod.${NAME}.dump id type x y z vx vy vz c_2[*]
dump		    1 all custom 400 prod.ice_275K_1000atm_mW.dump id type x y z vx vy vz c_2[*]
run                 200000
Neighbor list info ...
  update every 1 steps, delay 0 steps, check yes
  max neighbors/atom: 2000, page size: 100000
  master list distance cutoff = 6.3065
  ghost atom cutoff = 6.3065
  binsize = 3.15325, bins = 16 16 16
  2 neighbor lists, perpetual/occasional/extra = 1 1 0
  (1) pair sw, perpetual
      attributes: full, newton on
      pair build: full/bin/atomonly
      stencil: full/bin/3d
      bin: standard
  (2) compute orientorder/atom, occasional, copy from (1)
      attributes: full, newton on
      pair build: copy
      stencil: none
      bin: none
Per MPI rank memory allocation (min/avg/max) = 5.836 | 5.837 | 5.837 Mbytes
Step Temp Press Volume TotEng KinEng PotEng c_1[4] 
       0    272.54336   -1009.9854    126934.15   -43549.802    3326.7779    -46876.58   0.26068833 
     200    279.00347   -1004.6918    126941.55   -43541.328    3405.6327    -46946.96    0.2616204 
     400    268.80153   -1022.1665    126929.98   -43534.855    3281.1036   -46815.959   0.29041046 
     600    272.51221   -964.88694    126882.88   -43568.534    3326.3977   -46894.932   0.27158273 
     800    268.57208   -964.09719    126855.29   -43583.254    3278.3029   -46861.557   0.26518141 
    1000      273.476   -1009.5776    126903.73   -43594.254    3338.1622   -46932.416   0.27893871 
    1200    268.59542   -1014.8216    126925.05    -43615.63    3278.5877   -46894.218    0.2730992 
    1400    273.70901   -966.21295    126842.88   -43608.502    3341.0063   -46949.508   0.27041221 
    1600    273.15918   -972.83491    126796.78   -43611.623     3334.295   -46945.917   0.28936525 
    1800    272.72906    -984.3416    126865.77   -43615.854    3329.0446   -46944.899   0.27098216 
    2000    275.77715   -1035.9014     126956.5   -43573.282     3366.251   -46939.533   0.25733201 
    2200    274.91049    -1025.414    126925.16   -43544.056    3355.6721   -46899.729   0.28397842 
    2400    275.80615   -962.81572    126818.23   -43562.405    3366.6049    -46929.01   0.27834303 
    2600    272.64189   -938.52451    126806.35   -43602.677    3327.9806   -46930.657   0.26930786 
    2800    271.38185   -1026.9255    126916.72   -43616.256       3312.6   -46928.856   0.27588011 
    3000    271.29128   -1043.2336    126988.87   -43625.675    3311.4945    -46937.17   0.26377643 
    3200     271.0938    -932.3652    126896.05   -43578.661     3309.084   -46887.745   0.26482805 
    3400    269.01257   -934.04287    126778.72   -43614.978    3283.6797   -46898.657   0.28582918 
    3600    267.64402   -956.86163    126799.54   -43641.109    3266.9745   -46908.083   0.26798816 
    3800    275.53388   -1037.6366    126958.93   -43573.796    3363.2815   -46937.078   0.26113756 
    4000    276.64251   -1096.8649    127085.64   -43565.575    3376.8138   -46942.389   0.26803363 
    4200    274.56968   -1050.9314    126981.82   -43582.295     3351.512   -46933.807    0.2617414 
    4400     277.5101   -930.41039    126752.29   -43566.769     3387.404   -46954.173   0.27185692 
    4600    275.93452   -903.25474     126774.8   -43555.003    3368.1719   -46923.175   0.28276761 
    4800    272.93778   -1099.5284    127084.37   -43545.039    3331.5924   -46876.631   0.25635535 
    5000    268.03494   -1170.7149    127191.75   -43535.256    3271.7462   -46807.003   0.25926524 
    5200    275.97467   -972.41871    126872.93    -43539.31    3368.6619   -46907.971    0.2790424 
    5400     276.2699    -831.1692    126623.46   -43506.598    3372.2657   -46878.863   0.27063218 
    5600    278.90122   -961.05906    126870.29   -43489.009    3404.3846   -46893.394   0.26853448 
    5800    274.54732    -1189.628    127244.22   -43471.903    3351.2391   -46823.142   0.26927204 
    6000    280.53205   -1072.8216    127168.67   -43459.355    3424.2912   -46883.646   0.25930957 
    6200    277.39891   -858.52718    126803.17   -43458.465    3386.0468   -46844.511   0.27959318 
    6400    281.15317   -815.66354    126736.99   -43430.474    3431.8728   -46862.347   0.29028704 
    6600    280.38693   -1085.6211    127133.46   -43460.959    3422.5198   -46883.479   0.24805012 
    6800     275.3479    -1230.322    127344.34   -43487.714    3361.0113   -46848.725   0.25428735 
    7000    277.68878   -979.11396    126981.66   -43503.273    3389.5851   -46892.858   0.28116651 
    7200    275.71851   -771.56538    126614.94   -43459.147    3365.5351   -46824.683   0.27819894 
    7400    280.75978   -878.23659    126852.01   -43441.157     3427.071   -46868.228   0.26715124 
    7600    279.15837   -1213.9535    127347.95   -43468.164    3407.5236   -46875.687   0.25456097 
    7800    273.03839   -1202.9812    127271.43   -43492.902    3332.8204   -46825.722   0.25456992 
    8000    277.40987   -841.10683    126667.99   -43467.433    3386.1806   -46853.614   0.28808386 
    8200    277.69258   -749.31947    126511.11   -43503.861    3389.6315   -46893.492   0.29311324 
    8400     277.5161   -1064.9303    127064.84   -43524.726    3387.4772   -46912.203   0.25209565 
    8600    279.53383   -1259.6076    127437.81   -43476.947    3412.1065   -46889.054   0.24113882 
    8800    274.93298   -1059.3532    127053.81   -43426.529    3355.9466   -46782.476   0.27601881 
    9000    277.77384   -754.71656    126553.81   -43414.191    3390.6233   -46804.814   0.28427154 
    9200    284.56598    -848.2143    126787.89   -43398.243     3473.531   -46871.774   0.27266478 
    9400     282.0642   -1205.4892    127374.05     -43432.4    3442.9933   -46875.394    0.2548939 
    9600    279.37906   -1217.5324    127342.22   -43421.647    3410.2173   -46831.864   0.25398711 
    9800    279.15659   -840.36758    126744.22   -43444.277    3407.5018   -46851.779   0.28361581 
   10000    280.59205   -705.15577    126505.48   -43443.948    3425.0236   -46868.972   0.29776596 
   10200    277.07577   -1044.8791    127000.15   -43437.271    3382.1024   -46819.373   0.26512572 
   10400    276.28084   -1221.4521    127420.83   -43416.059    3372.3991   -46788.459   0.24751561 
   10600    277.17627   -1067.7924    127136.52   -43403.081    3383.3292    -46786.41   0.27101983 
   10800    281.07497   -798.94456    126650.88   -43437.992    3430.9183   -46868.911    0.2867696 
   11000    277.38942   -866.05956    126692.41   -43474.619     3385.931    -46860.55   0.28141934 
   11200    280.00995   -1090.6274    127121.89   -43483.198    3417.9182   -46901.117   0.26458006 
   11400     277.5724   -1191.0911    127231.19   -43503.994    3388.1645   -46892.159   0.25516374 
   11600    275.31244   -961.80382    126895.01   -43482.135    3360.5785   -46842.714    0.2753688 
   11800     273.5971   -840.83326    126653.79   -43550.918    3339.6403   -46890.558   0.29051744 
   12000    274.79873    -906.5032    126830.42   -43549.208    3354.3079   -46903.516   0.27000252 
   12200     272.4001   -1116.8098    127111.73   -43524.844    3325.0293   -46849.874    0.2566533 
   12400     271.2842   -1076.4686    127086.22   -43496.188    3311.4082   -46807.596   0.25819067 
   12600    274.97394   -968.10878     126839.2   -43508.616    3356.4466   -46865.062   0.27361269 
   12800    271.15928   -919.55314    126743.57   -43519.975    3309.8833   -46829.858   0.28038155 
   13000    274.05579   -990.21058    126921.49   -43499.661    3345.2393   -46844.901   0.27168467 
   13200    273.75502    -1098.102    127053.49   -43471.127    3341.5679   -46812.695   0.26767225 
   13400    279.40715   -1030.7279    126958.03   -43489.766    3410.5602   -46900.327   0.26966494 
   13600    277.73759   -952.37158    126820.72   -43488.311    3390.1809   -46878.492   0.28143188 
   13800    275.66488    -937.7367     126844.1   -43481.923    3364.8805   -46846.804   0.27345255 
   14000    277.39809   -1053.5278    126984.86   -43493.013    3386.0368    -46879.05   0.26859134 
   14200    274.34331   -1061.2061    126983.45   -43508.893    3348.7489   -46857.642   0.26833632 
   14400    272.75782   -989.23881    126797.22   -43539.351    3329.3957   -46868.746   0.27520753 
   14600    273.59517   -897.95938    126728.57   -43534.866    3339.6167   -46874.483   0.29188172 
   14800    274.44528   -1031.6903    126901.42   -43512.561    3349.9935   -46862.554   0.27434801 
   15000    271.50334   -1082.0187    127065.64   -43557.263     3314.083   -46871.346   0.25469456 
   15200    270.10009   -1040.3143     126981.8   -43611.101    3296.9544   -46908.055   0.27406794 
   15400    269.77569    -943.8329    126774.62   -43620.152    3292.9946   -46913.147   0.28047079 
   15600    269.01587   -912.27064    126751.74   -43662.024    3283.7199   -46945.744   0.27374409 
   15800    272.88976   -1074.7512    126948.84   -43609.044    3331.0062   -46940.051    0.2655194 
   16000    267.11447   -1058.0711    127076.07   -43594.375    3260.5107   -46854.886    0.2536204 
   16200    277.76773   -1007.0169    126948.71   -43551.196    3390.5488   -46941.744   0.25713009 
   16400     273.3562   -930.93982     126790.3   -43551.372    3336.6998   -46888.071   0.28355932 
   16600    275.58309   -972.37601    126875.07   -43566.056    3363.8822   -46929.938   0.26776893 
   16800    276.72454   -1056.9725    127044.28    -43523.24    3377.8152   -46901.056   0.24759017 
   17000    276.84646   -1049.3212    127017.62   -43544.557    3379.3034   -46923.861   0.26859353 
   17200    276.75124    -935.2014    126840.18   -43531.998    3378.1411   -46910.139   0.28216376 
   17400    272.71443   -917.39042    126819.93   -43573.654    3328.8661    -46902.52   0.26459286 
   17600    272.31491   -1041.4901    126989.42   -43606.032    3323.9894   -46930.022   0.26848144 
   17800    274.26612   -1069.0294    127070.95   -43621.795    3347.8067   -46969.602   0.26007061 
   18000    275.22166   -1024.8367    126900.77   -43651.933    3359.4704   -47011.404   0.25127542 
   18200    269.79184   -865.93946     126674.1   -43684.421    3293.1917   -46977.612   0.28140733 
   18400    265.37563   -916.44183    126719.98    -43698.89    3239.2857   -46938.176   0.28535091 
   18600    265.79516   -1095.7108    127002.17   -43657.522    3244.4066   -46901.928   0.25124611 
   18800    271.78545   -1144.6352    127083.16   -43602.059    3317.5266   -46919.585   0.26479322 
   19000    270.63646   -1027.5381    126828.12   -43621.555    3303.5016   -46925.057   0.28673136 
   19200    271.93095   -832.84531    126594.96   -43605.814    3319.3026   -46925.116   0.27096108 
   19400    274.48781   -969.88296    126804.59   -43601.864    3350.5127   -46952.377   0.27510806 
   19600    273.65092   -1172.0357    127176.82    -43614.93    3340.2973   -46955.227   0.25871874 
   19800    269.30223   -1088.2643    127079.56   -43608.923    3287.2154   -46896.138   0.24495519 
   20000    270.91083    -839.3226    126628.66   -43613.378    3306.8507   -46920.229    0.2868085 
   20200    275.29863   -803.73301    126558.45   -43639.916    3360.4099   -47000.326   0.28908407 
   20400    272.16376   -1096.1447    127028.29   -43611.675    3322.1443   -46933.819   0.24549502 
   20600     269.4443   -1243.4843    127285.17   -43609.355    3288.9496   -46898.305    0.2548657 
   20800    275.81301   -1026.7307    126878.92   -43603.238    3366.6887   -46969.926   0.27687532 
   21000      273.565   -759.22414    126481.61   -43610.958    3339.2485   -46950.206     0.276796 
   21200    272.46832   -925.82964    126748.19   -43598.409     3325.862   -46924.271   0.28007785 
   21400    274.46421   -1177.7061    127260.95   -43586.506    3350.2246    -46936.73   0.25208308 
   21600    275.51146   -1154.9838    127197.69   -43545.408    3363.0078   -46908.416   0.23987587 
   21800    276.99792   -840.94013    126698.74   -43513.291    3381.1522   -46894.443   0.28719421 
   22000    277.90638   -748.36382    126589.19   -43523.203    3392.2413   -46915.445   0.29063354 
   22200    278.24137   -1045.2254    127031.82   -43477.516    3396.3303   -46873.847   0.25608177 
   22400    281.59941   -1172.7329    127315.13   -43452.897    3437.3199   -46890.217   0.25321734 
   22600    273.30814   -1066.5512    127023.82   -43460.257    3336.1132   -46796.371   0.27731599 
   22800     276.3075   -825.37783    126614.84   -43508.397    3372.7246   -46881.121   0.27512629 
   23000    276.16966   -903.16211    126697.84   -43519.915    3371.0421   -46890.957   0.28490305 
   23200    271.77028   -1128.6291    127140.14   -43499.941    3317.3414   -46817.283   0.26630785 
   23400    272.59047   -1204.2344    127237.17   -43508.925     3327.353   -46836.278   0.24161455 
   23600      274.368   -971.05471    126830.03   -43524.961    3349.0502   -46874.011   0.27676973 
   23800    274.62445   -783.92166    126572.35    -43480.14    3352.1806   -46832.321   0.29347051 
   24000    274.04191   -1016.6346    126915.64   -43503.763    3345.0699   -46848.833   0.26675846 
   24200    272.47136   -1219.1074    127288.86   -43486.669    3325.8991   -46812.568    0.2623003 
   24400    274.97422   -1124.0788    127073.76   -43493.188      3356.45   -46849.638   0.26767773 
   24600    278.39715   -796.82363    126627.23   -43501.943    3398.2318   -46900.175    0.2716892 
   24800     279.3682   -827.96383    126680.31   -43432.123    3410.0848   -46842.207   0.28743251 
   25000    277.25067   -1137.5684    127160.91   -43435.618    3384.2374   -46819.855   0.26847077 
   25200    275.50056   -1219.7801     127287.4   -43456.565    3362.8748    -46819.44   0.24885436 
   25400    278.37322   -932.35289    126835.45   -43512.416    3397.9397   -46910.356    0.2750778 
   25600    277.05269    -763.6415    126534.43   -43538.803    3381.8207   -46920.624   0.28808105 
   25800    277.44882   -947.31753    126861.75   -43509.774     3386.656    -46896.43     0.266698 
   26000    275.13616     -1201.41    127287.51   -43487.307    3358.4267   -46845.734   0.26691703 
   26200    281.93823   -1133.2178    127139.04   -43517.763    3441.4557   -46959.219   0.26352137 
   26400    270.44567   -865.47485    126634.66   -43545.365    3301.1726   -46846.537   0.27913748 
   26600     275.7032   -837.51675    126578.83   -43554.727    3365.3483   -46920.075   0.28755022 
   26800    273.94824   -1037.8894    127036.82   -43552.351    3343.9265   -46896.278   0.26572621 
   27000    269.24653   -1197.2198    127276.04   -43549.381    3286.5354   -46835.916   0.24565459 
   27200    274.22641   -973.29017    126922.12   -43549.991    3347.3219   -46897.313     0.270031 
   27400    276.28686   -804.53315    126571.44   -43527.063    3372.4726   -46899.536    0.2910093 
   27600    272.34742   -890.35701    126800.31   -43533.247    3324.3862   -46857.633   0.27162007 
   27800    277.05367   -1169.9035     127212.1   -43513.812    3381.8326   -46895.645   0.26331565 
   28000     272.8263   -1134.2214    127113.96   -43508.352    3330.2316   -46838.584   0.26423449 
   28200    279.38616   -866.03819    126703.88    -43526.51     3410.304   -46936.814   0.27601297 
   28400    271.94762   -877.57404    126627.02   -43527.785    3319.5061   -46847.292   0.29268963 
   28600    277.36686   -1017.1032    126964.12   -43536.951    3385.6556   -46922.607   0.26467287 
   28800    276.45198   -1166.9053    127143.94   -43546.933    3374.4882   -46921.421   0.25391451 
   29000     272.4302   -979.06888    126905.36   -43587.938    3325.3967   -46913.335   0.26939558 
   29200    271.97627    -856.1548     126656.9   -43623.575    3319.8558   -46943.431   0.27589641 
   29400    276.45287   -978.82939    126755.62   -43624.237    3374.4991   -46998.736   0.28306959 
   29600    273.27747     -1092.19    127021.31   -43585.043    3335.7388   -46920.782   0.27458812 
   29800    273.57476   -1039.3123       127053    -43514.17    3339.3677   -46853.538   0.26773215 
   30000    280.61532   -938.24785    126856.46   -43506.125    3425.3076   -46931.432    0.2696551 
   30200    277.33233   -915.42037    126777.72    -43518.44    3385.2342   -46903.675   0.28384965 
   30400    280.31776   -976.71311    126926.52   -43566.444    3421.6756    -46988.12   0.26592532 
   30600    276.54509   -1055.8375    127027.79    -43513.32    3375.6248   -46888.945   0.26504956 
   30800    278.70339    -967.1979    126943.95   -43481.789    3401.9699   -46883.759   0.27680977 
   31000    281.15306   -941.26769    126844.07   -43474.978    3431.8715    -46906.85   0.27471548 
   31200    276.47417   -946.68636    126898.06   -43477.792     3374.759   -46852.551   0.27042224 
   31400    276.84775    -1002.816       127033   -43471.942    3379.3192   -46851.262   0.27835627 
   31600    273.24835   -1037.4684    127034.26   -43528.108    3335.3833   -46863.492   0.26547901 
   31800    280.05989    -989.9738    126912.09   -43499.883    3418.5278   -46918.411   0.26577501 
   32000    278.67104    -921.8214    126891.03   -43477.038     3401.575   -46878.613   0.28399161 
   32200    275.57135   -1023.9556    126996.61   -43502.138    3363.7388   -46865.877   0.26829583 
   32400    274.12045   -1055.0331    127028.89    -43502.36    3346.0285   -46848.389   0.26272456 
   32600      273.676   -976.43905    126950.09   -43492.146    3340.6035   -46832.749   0.28097865 
   32800     278.8808   -982.72526    126911.71   -43486.292    3404.1354   -46890.428   0.27153801 
   33000    276.98019   -1012.4402    126965.97   -43477.112    3380.9357   -46858.048   0.26866311 
   33200    272.38982   -1042.0242    127032.18   -43475.791    3324.9037   -46800.695    0.2863331 
   33400    279.09917   -1053.8049    127027.24   -43439.072    3406.8008   -46845.872   0.27017176 
   33600    282.36306   -982.43925     126950.4   -43379.558    3446.6413   -46826.199   0.26315458 
   33800    281.75265   -970.42772    126945.47   -43407.526    3439.1903   -46846.716   0.27571913 
   34000    280.01767   -987.49322    127017.21   -43441.464    3418.0125   -46859.476   0.25929809 
   34200    277.90053   -1040.1175    127043.07   -43476.752    3392.1698   -46868.922   0.25803437 
   34400    272.67941   -992.38391    126954.31   -43529.688    3328.4386   -46858.127    0.2765041 
   34600    274.21569   -956.32344    126867.38    -43497.33    3347.1912   -46844.521     0.267904 
   34800    270.32359   -1016.3239    126907.42   -43532.047    3299.6825   -46831.729   0.26431816 
   35000    273.22733   -1016.9413    126948.21   -43561.693    3335.1267    -46896.82   0.27257239 
   35200    272.08684   -983.76976    126903.09   -43556.761    3321.2054   -46877.966   0.26842241 
   35400    276.34915    -962.8385    126846.15   -43529.649    3373.2331   -46902.882   0.26726705 
   35600    276.77389   -990.71543     126858.7   -43522.353    3378.4175   -46900.771   0.28209177 
   35800    275.14298   -980.42124    126937.27   -43520.236    3358.5099   -46878.746   0.26209911 
   36000    277.05233   -1023.6082    127009.91   -43518.544    3381.8163    -46900.36   0.25490663 
   36200     274.5168   -1013.3555    126988.47   -43531.778    3350.8665   -46882.644   0.27450497 
   36400    275.84994   -974.01472    126899.37   -43556.851    3367.1395    -46923.99   0.25915361 
   36600    275.62792   -926.01816    126882.35   -43533.441    3364.4293    -46897.87   0.25881589 
   36800    275.96324   -1023.2315    126965.58   -43570.106    3368.5224   -46938.628    0.2689923 
   37000    274.67461   -1070.1213    126974.62   -43559.166    3352.7929   -46911.959   0.26320787 
   37200    276.74623   -971.92448    126866.98   -43525.549      3378.08   -46903.629   0.26787534 
   37400    272.87641   -931.21788    126830.36   -43518.036    3330.8432   -46848.879   0.27692636 
   37600    273.47252   -999.24093    126931.51   -43539.771    3338.1196   -46877.891    0.2634484 
   37800    268.89965   -1055.7843    127019.87   -43506.442    3282.3013   -46788.744   0.26285288 
   38000       273.11   -1065.1151    126961.39   -43554.911    3333.6946   -46888.606    0.2832397 
   38200     273.1268   -943.67614    126809.49   -43551.238    3333.8996   -46885.137   0.27506863 
   38400    275.61627   -936.01753    126794.55   -43520.024    3364.2872   -46884.311   0.26495951 
   38600    277.95389   -1032.3286       126973   -43515.628    3392.8211   -46908.449   0.27838366 
   38800    274.24306   -1111.0588    127086.16   -43557.588    3347.5252   -46905.113   0.26432055 
   39000     271.8908   -983.20775    126904.35   -43583.915    3318.8125   -46902.727   0.26458064 
   39200    271.36042   -854.00159     126665.2   -43605.914    3312.3385   -46918.252    0.2915192 
   39400    274.51119   -943.96658    126769.01   -43595.364     3350.798   -46946.162   0.27308401 
   39600    264.97564   -1183.1389    127101.57   -43652.428    3234.4032   -46886.831   0.25319647 
   39800     273.5176   -1158.9707    127082.05   -43643.066      3338.67   -46981.736   0.26635749 
   40000    268.77368   -864.62507    126686.45   -43664.263    3280.7636   -46945.027    0.2769212 
   40200    271.25406   -824.82931    126575.11   -43646.415    3311.0402   -46957.455   0.26943752 
   40400    270.52202     -1036.03    127008.43   -43630.187    3302.1047   -46932.292   0.26503772 
   40600    269.16466   -1269.7482    127310.91   -43650.957    3285.5361   -46936.493   0.24882219 
   40800    269.51865   -1039.9796    126939.59    -43670.02     3289.857   -46959.877   0.25400793 
   41000    272.14462   -722.75724    126424.96   -43642.342    3321.9107   -46964.253     0.291815 
   41200    270.74701   -850.63659    126654.79   -43663.739    3304.8509    -46968.59   0.27038983 
   41400    275.18746   -1213.5599    127303.98    -43628.43     3359.053   -46987.483   0.23674524 
   41600    270.87505   -1260.7196    127320.59   -43620.118    3306.4139   -46926.532   0.25003182 
   41800    271.77444   -835.99017    126653.15   -43626.188    3317.3922    -46943.58   0.28115175 
   42000    274.12031   -713.38282    126383.39   -43611.737    3346.0269   -46957.764   0.28300123 
   42200    272.03617   -1040.2024    126977.66   -43624.987     3320.587   -46945.574   0.25933261 
   42400    273.18071   -1367.0256    127470.55   -43659.861    3334.5577   -46994.419   0.24583488 
   42600    270.45441    -1108.293    127015.52   -43694.529    3301.2794   -46995.809   0.25099468 
   42800    271.67033   -670.54217    126357.17   -43701.753    3316.1214   -47017.874   0.28599933 
   43000    266.24195   -809.66138    126571.19   -43661.483    3249.8602   -46911.343   0.28850936 
   43200    267.14294   -1220.4002    127283.05   -43655.131    3260.8582   -46915.989   0.24176584 
   43400    269.29247   -1272.5152    127339.64   -43640.259    3287.0962   -46927.355   0.24887915 
   43600    275.56502    -883.0792    126678.54    -43649.85    3363.6616   -47013.511   0.28140349 
   43800     272.2839   -704.07579    126364.29   -43624.102    3323.6108   -46947.712   0.28379173 
   44000    271.19979   -1016.9966    126858.38   -43636.648    3310.3777   -46947.026   0.26686447 
   44200    269.60432   -1275.5567    127302.98     -43681.1    3290.9028   -46972.003   0.25561317 
   44400     270.4926   -1091.2784    127037.21   -43665.242    3301.7455   -46966.987   0.25032819 
   44600    277.32153   -806.73735    126557.59   -43608.609    3385.1023   -46993.712   0.28080422 
   44800     274.3893   -846.44682    126637.19   -43574.497    3349.3103   -46923.807   0.28837808 
   45000    269.17635   -1186.1658    127130.87   -43593.759    3285.6788   -46879.438   0.25080488 
   45200    269.93683   -1233.2768    127210.25   -43608.146    3294.9616   -46903.108   0.25566707 
   45400    270.65568   -921.98891    126733.61   -43662.317    3303.7362   -46966.053   0.27880891 
   45600    269.75313   -777.99644    126486.22    -43652.15    3292.7192    -46944.87   0.27342682 
   45800     270.3076   -1009.8336    126868.99   -43621.607    3299.4873   -46921.094   0.26730631 
   46000    274.24108   -1184.0649    127268.38   -43611.346     3347.501   -46958.847   0.25564808 
   46200     270.9113    -1120.173    127103.73   -43636.711    3306.8563   -46943.567   0.24190161 
   46400    271.52603   -879.76829     126650.6    -43630.81      3314.36    -46945.17   0.27008109 
   46600    275.24504   -839.29162    126593.27   -43637.705    3359.7557   -46997.461   0.28107528 
   46800     270.1134   -1045.0052    126994.35   -43596.949    3297.1168   -46894.066   0.25442071 
   47000    270.99814   -1235.8587    127222.39   -43575.888    3307.9164   -46883.804   0.25143176 
   47200    270.54169   -1034.9575    126925.81   -43554.933    3302.3448   -46857.277   0.27284595 
   47400    277.38946   -804.07838    126592.36   -43494.206    3385.9315   -46880.137   0.26778226 
   47600    274.33538   -929.52125    126788.15     -43467.9    3348.6521   -46816.552   0.27518063 
   47800    274.57116   -1186.2869    127205.59   -43432.819    3351.5301   -46784.349   0.27227211 
   48000       276.03   -1165.4401    127182.77   -43438.111    3369.3373   -46807.449   0.25094521 
   48200    280.42078   -878.77299     126757.5   -43445.607     3422.933    -46868.54   0.27219661 
   48400    278.94742   -811.90939    126647.98   -43430.299    3404.9485   -46835.248   0.29068448 
   48600    279.91317   -1035.8364    127034.78   -43479.943    3416.7369    -46896.68    0.2501645 
   48800     277.8622   -1197.8668    127319.66     -43423.8    3391.7019   -46815.502   0.24601708 
   49000    278.50876   -1061.2206     127097.3   -43403.778    3399.5941   -46803.372   0.26962264 
   49200    274.66847   -871.42514    126748.34   -43443.806    3352.7179   -46796.524   0.26596526 
   49400    275.48696   -922.44265    126826.92   -43453.723    3362.7087   -46816.432   0.26928214 
   49600     273.9829   -1081.4743    127178.78   -43468.982    3344.3495   -46813.331   0.26781422 
   49800    280.08828   -1148.8044    127241.68   -43448.666    3418.8744    -46867.54   0.24589682 
   50000    283.04253   -945.45298    126885.21   -43452.766    3454.9352   -46907.701   0.26099623 
   50200    278.81373   -830.02566    126666.05   -43490.251    3403.3167   -46893.568   0.28544991 
   50400    277.82425   -972.86845    126917.19   -43486.433    3391.2387   -46877.672   0.26194591 
   50600    272.68868   -1205.8289    127212.16   -43499.449    3328.5517   -46828.001   0.25648547 
   50800    278.37123   -1043.8789    127010.49    -43510.47    3397.9154   -46908.385   0.27195753 
   51000    278.36777    -791.9101     126623.3   -43466.786    3397.8731   -46864.659   0.27047238 
   51200    279.95781   -879.51035    126705.25   -43488.464    3417.2818   -46905.745   0.27288401 
   51400    274.76578   -1120.6189    127128.94   -43447.298    3353.9058   -46801.204   0.27501001 
   51600    279.79087   -1201.7715    127233.86   -43447.292    3415.2441   -46862.536   0.24558999 
   51800    278.17692   -893.90184    126869.44   -43451.685    3395.5435   -46847.229   0.26163005 
   52000    280.05761    -802.6273    126662.73   -43410.388       3418.5   -46828.888   0.29042349 
   52200    279.40722    -983.6568    126968.84   -43379.015    3410.5611   -46789.576   0.25496143 
   52400    284.39355    -1233.851    127355.51   -43361.181    3471.4263   -46832.607   0.24825511 
   52600    279.04394   -1100.5373    127153.41    -43398.79    3406.1267   -46804.917   0.26986675 
   52800    283.53519   -819.49371    126649.36   -43424.134    3460.9488   -46885.083   0.26549684 
   53000    279.62966   -777.46728    126654.72   -43432.364    3413.2763    -46845.64   0.27314271 
   53200    276.33668   -1163.3078     127227.3   -43432.979    3373.0808   -46806.059   0.26601436 
   53400    277.34415    -1245.671    127431.64   -43448.167    3385.3784   -46833.545   0.23268397 
   53600     274.9429   -944.21333    126825.27   -43488.929    3356.0677   -46844.997   0.26997473 
   53800    278.98141   -636.94669    126326.17   -43483.301    3405.3634   -46888.664   0.30280732 
   54000    277.57284   -956.97341    126844.35   -43468.599    3388.1699   -46856.769   0.25828229 
   54200    273.90374   -1402.2171     127666.6   -43461.087    3343.3833    -46804.47   0.22942344 
   54400    278.11145   -1275.9318    127430.66   -43488.035    3394.7443    -46882.78   0.25012506 
   54600    277.91611   -664.44079    126430.87   -43497.382      3392.36   -46889.742   0.27532384 
   54800    280.33549   -578.13908    126317.72   -43449.438    3421.8919    -46871.33   0.29123161 
   55000    278.02613   -1192.0776    127310.58   -43439.624    3393.7029   -46833.327   0.26224294 
   55200    276.20619   -1444.8822    127761.89   -43459.746     3371.488   -46831.234   0.23035108 
   55400    269.34929   -1009.8685    126958.61   -43492.022    3287.7898   -46779.812   0.26257458 
   55600    275.73011   -615.22774    126224.59   -43532.932    3365.6768   -46898.609   0.30712624 
   55800    277.44717   -773.46961    126624.29   -43504.707    3386.6358   -46891.343    0.2708115 
   56000    278.72549      -1203.2    127403.02   -43478.393    3402.2396   -46880.633   0.23747751 
   56200    274.08537   -1246.8968     127369.6   -43501.039    3345.6003    -46846.64   0.25959489 
   56400    279.60896   -888.60936    126763.25   -43515.722    3413.0236   -46928.746   0.25951867 
   56600    277.93497   -827.81943    126589.45   -43522.992    3392.5902   -46915.583   0.27515933 
   56800    278.03049   -1032.4114    126999.98   -43479.497    3393.7562   -46873.253   0.27003947 
   57000    276.86781   -1168.0243    127306.55   -43469.768     3379.564   -46849.332   0.24385057 
   57200    276.03606   -1080.8955    127083.17   -43506.545    3369.4113   -46875.956   0.25397039 
   57400    277.89774   -836.42583    126714.53   -43531.918    3392.1357   -46924.054   0.27939698 
   57600    279.92432   -910.27233    126787.27   -43500.442     3416.873   -46917.315   0.26479166 
   57800    274.33732   -1096.2073    127161.08   -43506.945    3348.6758   -46855.621   0.24464459 
   58000    275.95096   -1124.1731    127220.26   -43519.359    3368.3725   -46887.731   0.26101932 
   58200    276.66556    -953.9543    126823.67   -43562.068    3377.0953   -46939.163   0.26149789 
   58400    273.30798   -803.86918    126589.55   -43559.861    3336.1113   -46895.973   0.27320162 
   58600    269.66592    -998.2189    126905.48   -43538.551    3291.6548   -46830.206    0.2811939 
   58800    274.86205   -1182.7231    127267.29   -43562.821    3355.0808   -46917.901   0.24357095 
   59000    275.19759   -1054.5427    127099.81   -43587.037    3359.1766   -46946.214   0.24741359 
   59200    274.31837   -863.06653    126666.44   -43593.826    3348.4444   -46942.271   0.28915566 
   59400    267.56662   -842.89685     126629.8   -43543.366    3266.0298   -46809.396   0.27784077 
   59600     272.2081   -1114.3654    127027.12   -43535.058    3322.6857   -46857.744     0.254775 
   59800    276.31516   -1160.7127    127194.18   -43519.575    3372.8181   -46892.393   0.26583724 
   60000    275.73292   -1015.2779    126901.25   -43512.819     3365.711    -46878.53   0.26589592 
   60200    275.09179   -840.09182    126637.58   -43492.826    3357.8851   -46850.712   0.26948388 
   60400    279.93145   -977.10007     126848.4   -43463.153    3416.9601   -46880.113   0.28441286 
   60600    271.92575    -1197.381    127189.62    -43493.15    3319.2391   -46812.389   0.25890795 
   60800    279.24343   -1095.5547    127109.71   -43439.689    3408.5618   -46848.251   0.25150919 
   61000    276.11073   -910.90966    126765.94   -43480.729    3370.3228   -46851.052   0.28490406 
   61200    278.64656   -847.04693    126695.02    -43486.16    3401.2762   -46887.437    0.2696281 
   61400    277.35662   -1025.6014    126964.97   -43480.277    3385.5306   -46865.808   0.25246297 
   61600     282.9043   -1107.2312    127152.08   -43469.128    3453.2479   -46922.376   0.26333677 
   61800    278.35498   -1026.5991    126976.54   -43472.331    3397.7171   -46870.048   0.26055235 
   62000    275.07267   -836.90697    126719.05   -43489.097    3357.6518   -46846.749    0.2723572 
   62200     273.2112   -918.25498    126759.05   -43493.905    3334.9299   -46828.835   0.28577211 
   62400    280.03456   -1087.2097       126999   -43458.853    3418.2186   -46877.071   0.25918862 
   62600    280.33398   -1047.8451    127051.39    -43479.27    3421.8735   -46901.144   0.25518079 
   62800    277.66199   -944.45803    126830.94    -43454.65    3389.2581   -46843.908   0.28427705 
   63000    281.78569   -823.43692    126677.24   -43432.619    3439.5937   -46872.213   0.27287762 
   63200    279.03318    -992.7448    126915.46   -43432.853    3405.9954   -46838.848    0.2642941 
   63400    274.73861   -1138.5402    127207.75   -43388.376    3353.5741    -46741.95   0.27559433 
   63600    280.85574   -1072.0297     127093.8   -43370.667    3428.2423   -46798.909   0.26058231 
   63800    278.10752   -872.35651    126713.98   -43399.584    3394.6964    -46794.28   0.27680549 
   64000    286.67473   -838.85195    126662.11   -43407.243    3499.2714   -46906.514   0.28772958 
   64200    280.73696   -1064.5743    127060.61   -43405.187    3426.7924   -46831.979   0.25909646 
   64400     279.6791   -1237.7411    127317.54   -43385.159    3413.8798   -46799.039   0.25424672 
   64600    278.18477   -993.19555    126953.85   -43438.832    3395.6394   -46834.471   0.28122099 
   64800    276.66178   -749.59897    126469.48   -43456.557     3377.049   -46833.606   0.28632453 
   65000    280.81429   -805.21353    126719.67   -43452.899    3427.7364   -46880.636   0.26533751 
   65200    276.63053   -1320.0427    127432.31   -43462.893    3376.6676   -46839.561   0.24987282 
   65400     277.6043   -1273.7589    127418.87   -43480.596    3388.5539    -46869.15    0.2425301 
   65600    277.00456   -769.07875     126580.7   -43518.716    3381.2332   -46899.949   0.27187302 
   65800       278.91    -600.0956    126260.31   -43498.824    3404.4918   -46903.316   0.30598345 
   66000    274.82873   -1059.7788    127017.83   -43487.436    3354.6742    -46842.11   0.26918619 
   66200    273.86519   -1433.6772    127685.69   -43504.929    3342.9128   -46847.841   0.22949241 
   66400    274.58016   -1138.8335     127175.1    -43508.08    3351.6399    -46859.72   0.26146536 
   66600    275.94635   -599.81858    126295.08   -43536.051    3368.3163   -46904.367   0.29254854 
   66800     272.7764   -705.15521    126432.34   -43512.555    3329.6225   -46842.178   0.28720985 
   67000    278.64208   -1203.7801     127272.8   -43519.096    3401.2214   -46920.317    0.2577127 
   67200     278.4599   -1305.8607    127472.95   -43533.995    3398.9977   -46932.993   0.24119483 
   67400    268.92037   -969.03262    126818.88   -43573.511    3282.5542   -46856.065   0.26300851 
   67600    276.13371   -683.59831    126372.11   -43541.082    3370.6033   -46911.685   0.29766709 
   67800    280.03802   -917.93155    126787.08       -43491    3418.2609   -46909.261   0.27284233 
   68000    273.82181   -1225.7385    127329.82   -43477.999    3342.3833   -46820.382   0.24211706 
   68200    268.72222   -1191.6994    127172.11   -43545.798    3280.1355   -46825.933   0.26766105 
   68400    270.36911   -815.68045    126642.93   -43503.604    3300.2382   -46803.842   0.28666529 
   68600    278.90737   -775.11638    126621.66   -43492.205    3404.4597   -46896.665   0.26395065 
   68800    275.88703   -1090.5207    127093.02   -43457.603    3367.5921   -46825.195   0.27250527 
   69000    270.12437   -1209.8943    127305.62    -43493.15    3297.2507   -46790.401   0.25554347 
   69200    274.32036   -967.16331    126930.83   -43503.632    3348.4687   -46852.101    0.2515764 
   69400    272.75516   -758.77813     126558.3   -43544.324    3329.3633   -46873.687   0.28701657 
   69600     275.6556   -887.54596    126771.66   -43554.489    3364.7673   -46919.256   0.27245329 
   69800    277.42562   -1150.6088    127194.74   -43518.914    3386.3729   -46905.287   0.23666335 
   70000    274.28223    -1115.725     127164.4   -43481.354    3348.0034   -46829.357   0.26531834 
   70200    276.37991   -905.80046    126760.88   -43484.483    3373.6085   -46858.092    0.2767653 
   70400    278.95862   -846.77607    126634.71   -43493.118    3405.0853   -46898.203   0.26595654 
   70600    279.20688   -1006.3247     126980.1   -43463.847    3408.1156   -46871.962   0.27303602 
   70800    274.81383   -1243.3454    127276.32   -43479.304    3354.4922   -46833.796   0.26300375 
   71000     278.8478   -1109.5985    127069.08   -43521.564    3403.7326   -46925.297   0.24396671 
   71200    275.77568   -823.26237    126657.66   -43533.008     3366.233   -46899.241     0.279082 
   71400    275.36518   -869.32769    126675.66   -43507.218    3361.2223    -46868.44   0.28044966 
   71600    271.32135   -1117.2132    127099.61   -43480.731    3311.8616   -46792.592    0.2497527 
   71800    274.95123    -1199.671    127269.92   -43488.855    3356.1694   -46845.024   0.25905194 
   72000    275.25866   -986.44689    126896.39   -43525.036     3359.922   -46884.958   0.27151928 
   72200    275.07873   -787.46675    126539.18   -43559.918    3357.7258   -46917.643    0.2684281 
   72400    275.04458   -896.28032    126764.49   -43536.753    3357.3089   -46894.062   0.27623793 
   72600     276.2274   -1230.2735    127235.08   -43508.408    3371.7469   -46880.155   0.25901076 
   72800     270.9299   -1200.7207    127201.18   -43570.725    3307.0834   -46877.809   0.24158541 
   73000    269.19292   -853.56631    126715.31   -43580.402     3285.881   -46866.283   0.27933548 
   73200    279.03566   -782.26225    126529.56   -43604.274    3406.0257     -47010.3   0.28114879 
   73400    274.91221   -996.03837    126932.28   -43581.289    3355.6931   -46936.982   0.24747402 
   73600    270.03214   -1229.1506    127343.04   -43559.609     3296.125   -46855.734   0.25067869 
   73800    271.43874   -1105.5828    127124.76   -43563.563    3313.2944   -46876.857   0.26140329 
   74000    275.81167   -823.82448    126634.08   -43603.915    3366.6723   -46970.587   0.25769087 
   74200    273.00362   -827.74666    126663.57     -43610.1    3332.3961   -46942.496   0.26977418 
   74400    274.69725   -1088.3124    127121.45   -43575.232    3353.0692   -46928.302   0.25810383 
   74600    272.71066   -1184.2972    127277.78   -43582.835    3328.8201   -46911.655   0.23547338 
   74800    276.85404   -1007.9201    126890.39    -43601.86    3379.3959   -46981.255   0.26095452 
   75000    273.30061   -760.90775    126589.52    -43576.18    3336.0212   -46912.202     0.285142 
   75200    274.90055   -937.96596    126830.73   -43552.054    3355.5507   -46907.605   0.25658739 
   75400    272.83384   -1188.4102    127188.63   -43542.333    3330.3236   -46872.657   0.25058795 
   75600    279.91427   -1092.8216    127107.26   -43518.029    3416.7503    -46934.78   0.25931188 
   75800    273.48998   -902.98757    126800.46   -43496.503    3338.3328   -46834.835   0.25505137 
   76000    280.49726   -910.16924    126762.37   -43493.907    3423.8665   -46917.773   0.26793533 
   76200    276.98584   -995.86799    127009.64   -43511.605    3381.0048    -46892.61   0.26078246 
   76400    275.93835   -1118.5898    127144.39   -43483.966    3368.2186   -46852.185   0.24376215 
   76600    277.95722   -1009.1598    126993.91   -43474.605    3392.8618   -46867.466   0.26098326 
   76800    277.09815    -894.1729    126783.83   -43472.119    3382.3756   -46854.494   0.27450711 
   77000    275.28828   -878.69646     126822.4   -43480.155    3360.2836   -46840.438   0.25117874 
   77200    278.43517   -1052.8754    127053.06   -43519.603    3398.6958   -46918.299   0.26009024 
   77400    279.02519   -1064.5363    127105.87    -43497.43    3405.8979   -46903.328   0.25443378 
   77600    277.90863    -1016.052    126916.63   -43524.799    3392.2687   -46917.068   0.25104164 
   77800    274.04972   -891.76141    126782.85   -43535.291    3345.1652   -46880.456   0.27078374 
   78000    276.87808   -1000.6704    126912.59   -43537.409    3379.6894   -46917.099   0.26946238 
   78200    277.69103   -1072.6366    127076.61   -43524.753    3389.6126   -46914.365   0.23600949 
   78400    274.22916    -1024.003    127018.29   -43550.718    3347.3556   -46898.074   0.25886019 
   78600    276.86613   -921.08954    126844.65   -43559.638    3379.5434   -46939.181   0.26949949 
   78800     277.3009   -933.25837    126825.78   -43541.006    3384.8505   -46925.857   0.25364152 
   79000    278.18906   -1044.9068     126962.6   -43534.405    3395.6917   -46930.097   0.26469057 
   79200    271.39884   -1100.3319    127030.99    -43536.24    3312.8075   -46849.047   0.26503275 
   79400    275.64516   -1003.2086    126903.15   -43495.833    3364.6398   -46860.473    0.2549224 
   79600    275.89209   -949.46363    126802.01   -43495.491     3367.654   -46863.145   0.27940421 
   79800    271.84746   -1056.3913    126908.93   -43512.815    3318.2836   -46831.098   0.27928719 
   80000    274.83524   -1037.2656    127018.16   -43490.783    3354.7536   -46845.536    0.2487241 
   80200    275.66263   -1032.3084    126968.84   -43450.377     3364.853    -46815.23   0.27881351 
   80400    281.28277   -948.00403    126862.86   -43439.032    3433.4548   -46872.486   0.28451496 
   80600    278.79594   -964.49161    126860.68   -43456.321    3403.0995   -46859.421   0.26645796 
   80800    280.56913   -1012.8586    126967.35   -43407.899    3424.7438   -46832.643   0.27283081 
   81000     277.0325   -1073.5406    127018.09   -43455.644    3381.5742   -46837.218   0.27918924 
   81200    280.66411     -981.448    126884.51   -43438.344    3425.9032   -46864.247   0.25839174 
   81400    281.01039   -930.00453    126799.58   -43411.552    3430.1301   -46841.682   0.28301555 
   81600     282.1641   -983.32124    126929.19   -43426.486    3444.2127   -46870.699   0.27738605 
   81800     279.2095   -1091.9475    127099.36   -43429.945    3408.1476   -46838.093   0.25002974 
   82000    282.92729   -1053.8906    127048.88   -43403.587    3453.5286   -46857.116   0.26435171 
   82200    277.13358   -944.61036    126837.55   -43448.647     3382.808   -46831.455   0.27876415 
   82400    279.43614   -911.91766    126792.55    -43458.89    3410.9141   -46869.804   0.26492182 
   82600    275.57064   -1060.4627    127043.04   -43479.146    3363.7302   -46842.876   0.26690382 
   82800    275.85236   -1147.5581    127189.86   -43512.733    3367.1689   -46879.901   0.25797143 
   83000    275.76022    -941.9844    126911.05   -43505.145    3366.0443   -46871.189   0.25615363 
   83200    281.27517   -783.59024    126607.49       -43525     3433.362   -46958.362   0.28258722 
   83400    277.28665   -915.76989    126805.29   -43547.563    3384.6765    -46932.24   0.27148713 
   83600     275.1769   -1198.9377    127280.48   -43551.468    3358.9241   -46910.392   0.23480856 
   83800    274.21196   -1187.1362    127238.93   -43503.544    3347.1456    -46850.69   0.25400552 
   84000    274.05982   -850.87529    126683.06   -43536.547    3345.2884   -46881.835   0.27975392 
   84200    271.00843   -784.12617    126511.67   -43523.953    3308.0419   -46831.995    0.2875733 
   84400    270.86579   -1091.3667    127026.04   -43533.865    3306.3008   -46840.166   0.26576158 
   84600    275.01603   -1280.0681    127386.84   -43518.935    3356.9604   -46875.895   0.25034339 
   84800    276.03803   -1051.9328    127013.43   -43540.818    3369.4354   -46910.254   0.25269672 
   85000     276.9382   -736.40726    126508.84    -43510.75    3380.4232   -46891.173   0.29099857 
   85200    277.45819   -860.66306    126712.53   -43481.824    3386.7704   -46868.594   0.28255214 
   85400    279.69586   -1187.8032    127312.29    -43456.24    3414.0843   -46870.325   0.23559661 
   85600    280.28207   -1214.7883    127395.58   -43462.044    3421.2399   -46883.284   0.24582537 
   85800    282.29226   -885.86933    126827.94   -43474.168    3445.7771   -46919.945   0.27078896 
   86000    276.63094   -742.92993    126529.02   -43443.295    3376.6727   -46819.968   0.28272857 
   86200    275.30195   -994.33042     126981.8   -43448.812    3360.4504   -46809.263   0.26795014 
   86400    277.39435    -1270.112    127413.51    -43437.64    3385.9912   -46823.631   0.25296955 
   86600    282.25027   -1079.0689    127121.17   -43426.153    3445.2645   -46871.417   0.24561302 
   86800    278.27883    -767.1897    126594.75   -43469.305    3396.7874   -46866.092   0.27840741 
   87000    274.70829   -805.98019    126663.04   -43485.343    3353.2039   -46838.547   0.27858938 
   87200    283.04177   -1147.9611    127202.77   -43458.192    3454.9259   -46913.118   0.24094986 
   87400    273.00128   -1230.5886    127379.12   -43425.894    3332.3676   -46758.262   0.24976979 
   87600    277.22043   -960.28528    126958.79   -43479.126    3383.8683   -46862.994   0.26735224 
   87800    272.37385   -817.44093    126633.54   -43497.854    3324.7088   -46822.562   0.27088329 
   88000    277.60294   -936.90174    126864.17   -43458.701    3388.5373   -46847.238   0.26954806 
   88200    276.23374   -1158.4951    127272.29   -43474.173    3371.8243   -46845.997   0.24992336 
   88400    273.78315   -1096.8478    127211.09   -43463.965    3341.9113   -46805.876    0.2420375 
   88600    276.30515    -923.4519    126801.03   -43488.708    3372.6959   -46861.404   0.27161006 
   88800    279.37019   -853.22471     126693.7   -43488.906    3410.1091   -46899.015   0.27672029 
   89000    279.90544   -1031.4806    127011.32   -43497.467    3416.6425    -46914.11   0.24204463 
   89200     273.2881   -1159.3342    127229.39   -43468.633    3335.8685   -46804.502    0.2543449 
   89400    277.26621   -1033.3153    127039.48    -43442.13     3384.427   -46826.558   0.26579134 
   89600    275.93083   -925.89064     126758.5   -43472.402    3368.1268   -46840.529    0.2666203 
   89800    278.22262   -919.02061    126794.89   -43490.894    3396.1013   -46886.995   0.27901014 
   90000     279.9194   -1065.7217    127078.46   -43498.869    3416.8129   -46915.682   0.25715662 
   90200    272.73607   -1166.7583    127152.48   -43537.379    3329.1302   -46866.509   0.24606491 
   90400    272.76815   -941.83925    126867.31   -43565.649    3329.5219   -46895.171   0.26879012 
   90600    275.61293   -877.37978    126698.92    -43555.47    3364.2464   -46919.716   0.26814433 
   90800    272.45569   -1001.2978    126908.35   -43566.843    3325.7078   -46892.551   0.25154767 
   91000    273.76848   -1116.8477    127152.14    -43564.02    3341.7322   -46905.752   0.26207432 
   91200    272.63952   -1075.8327    127070.35   -43576.006    3327.9517   -46903.957   0.25604435 
   91400    280.09733   -920.59197     126806.4   -43574.365    3418.9848    -46993.35   0.25926261 
   91600    276.43648   -838.07162    126765.08   -43581.218    3374.2989   -46955.517   0.27649006 
   91800    273.24854   -1048.0812    127032.64   -43553.386    3335.3856   -46888.772   0.25846246 
   92000    275.24876   -1128.1306    127180.94   -43563.865    3359.8011   -46923.666   0.23945149 
   92200    272.61384   -1034.0719    126950.12    -43585.52    3327.6383   -46913.158   0.26642879 
   92400    271.14676   -858.38434     126706.8   -43548.306    3309.7305   -46858.036   0.27406354 
   92600    276.74178   -972.93253    126826.55   -43597.315    3378.0257    -46975.34   0.26104984 
   92800    278.99699   -1095.9849    127060.37   -43570.002    3405.5536   -46975.556   0.26224964 
   93000    280.27506   -998.56473    127044.91   -43506.047    3421.1543   -46927.201   0.25571481 
   93200    272.53483    -994.3244       126872   -43509.634    3326.6739   -46836.308   0.26266551 
   93400    276.42673   -972.45339    126841.14   -43510.695      3374.18   -46884.875   0.28029439 
   93600       277.81   -998.40929    126997.87    -43491.28    3391.0648   -46882.345   0.26227432 
   93800    277.26193   -1056.5188    127099.65   -43489.449    3384.3747   -46873.823   0.25022672 
   94000     275.5721    -1030.996    126987.24   -43493.882    3363.7481    -46857.63   0.26879367 
   94200    271.86965   -968.52401    126821.89   -43566.156    3318.5544   -46884.711   0.26427442 
   94400    274.77326    -952.1062    126826.15   -43552.159    3353.9971   -46906.156   0.26162349 
   94600    274.75919   -1008.9766    126987.94   -43544.161    3353.8253   -46897.987   0.26144519 
   94800    276.27666    -1080.081    127021.03   -43594.291    3372.3482   -46966.639   0.25411245 
   95000     269.8505   -979.50895    126874.53   -43603.484    3293.9078   -46897.392   0.25925926 
   95200    269.63485   -944.70587    126780.04   -43605.103    3291.2755   -46896.378   0.27599224 
   95400    276.90066   -949.34602    126883.21   -43620.242    3379.9649   -47000.207    0.2595918 
   95600    277.13939   -1029.2007     126964.5   -43580.369    3382.8789   -46963.248   0.25512328 
   95800    274.82761   -962.69104     126917.8   -43548.663    3354.6605   -46903.323    0.2669426 
   96000    277.13055   -967.16299    126904.05   -43545.124     3382.771   -46927.895   0.26346093 
   96200    270.31941   -1029.4155    126936.84    -43569.49    3299.6315   -46869.121   0.25347163 
   96400    276.33875   -1007.7809    126925.16   -43565.135     3373.106   -46938.241   0.26139845 
   96600    273.46622    -999.3334    126899.61   -43578.247    3338.0427    -46916.29   0.26969689 
   96800    275.62135   -998.03356    126890.08   -43625.553    3364.3492   -46989.902   0.25272482 
   97000     272.5758   -980.52144    126854.48   -43613.321    3327.1739   -46940.495   0.26798222 
   97200    273.20911    -984.0165    126878.25   -43604.107    3334.9044   -46939.012    0.2655742 
   97400    271.50251   -1042.7591    126939.17    -43563.85    3314.0729   -46877.923   0.25929354 
   97600    272.74119   -1060.2517     126952.7   -43540.388    3329.1927    -46869.58   0.26736329 
   97800    275.80682   -1012.5083    126906.09   -43536.042    3366.6131   -46902.655   0.26816822 
   98000    278.95776   -943.07743    126868.12   -43510.886    3405.0748   -46915.961    0.2517311 
   98200    267.40432   -1035.1521     126943.4   -43520.481    3264.0487   -46784.529   0.26682649 
   98400    278.78599   -1033.0175     127014.3   -43456.949    3402.9781   -46859.927   0.26824973 
   98600     274.4184   -1013.5064    126980.07   -43499.411    3349.6654   -46849.076   0.25710064 
   98800    277.30078   -946.22871    126900.66   -43467.108     3384.849   -46851.957   0.26611893 
   99000    280.65204    -1008.717    126943.19   -43469.512    3425.7559   -46895.268   0.27764761 
   99200    275.48708   -1067.5087    127008.34   -43529.622    3362.7103   -46892.333    0.2549183 
   99400    272.22444   -997.26735    126896.55   -43610.834     3322.885   -46933.719     0.266554 
   99600    269.47796   -979.51852    126771.11   -43632.951    3289.3604   -46922.312   0.27955456 
   99800    275.91934   -951.75181    126846.42   -43601.691    3367.9865   -46969.677    0.2527929 
  100000    276.70589   -1013.8428    127011.12   -43605.546    3377.5875   -46983.134    0.2522034 
  100200    272.17578   -1001.7624    127008.48   -43570.012    3322.2911   -46892.303    0.2690804 
  100400    274.58115   -960.73852    126836.38   -43553.937    3351.6521   -46905.589   0.26346127 
  100600    277.98976   -913.44772    126767.74   -43515.601     3393.259    -46908.86   0.27005531 
  100800     273.3251   -1027.1216    126943.14    -43540.58    3336.3202   -46876.901   0.27520157 
  101000    278.00975   -1069.4621    127088.99   -43531.355     3393.503   -46924.858   0.24650677 
  101200    276.16718   -1009.4168    126997.65   -43501.624    3371.0118   -46872.636   0.26420522 
  101400    270.95184   -949.16387    126819.95   -43524.117    3307.3512   -46831.468   0.28169581 
  101600    273.42346   -963.32948    126827.24   -43532.916    3337.5208   -46870.436   0.25649769 
  101800    273.74441   -1058.8329    127031.25    -43500.93    3341.4385   -46842.369   0.25329006 
  102000    274.92052   -1087.5702    127146.11   -43508.159    3355.7945   -46863.954   0.26472691 
  102200    278.09342   -1002.2692    126963.83   -43495.271    3394.5243   -46889.795   0.25127073 
  102400    280.54998   -871.81685    126762.78   -43453.374    3424.5101   -46877.884   0.26899335 
  102600     277.0537   -922.60448    126900.31   -43454.225     3381.833   -46836.058    0.2724893 
  102800    279.14273   -1140.6844    127193.66   -43466.567    3407.3326     -46873.9   0.24335663 
  103000    275.64347   -1132.5228    127162.44   -43460.359    3364.6192   -46824.978   0.26154813 
  103200    274.06275   -887.13636     126832.8    -43448.05    3345.3242   -46793.374   0.28343859 
  103400    280.01406   -839.88526    126727.58   -43477.501    3417.9684    -46895.47   0.25377026 
  103600    279.14578   -997.60609    127039.05    -43478.65    3407.3698    -46886.02   0.25049073 
  103800    276.02257   -1177.9412    127313.74    -43468.94    3369.2466   -46838.187   0.26061823 
  104000    277.03082   -1073.8457    127079.26   -43483.051    3381.5537   -46864.605   0.25202879 
  104200    277.08757   -854.56403       126682   -43497.488    3382.2464   -46879.735    0.2782271 
  104400    278.23109   -868.89709    126728.48   -43517.512    3396.2047   -46913.716   0.28584931 
  104600     279.0667   -1139.4828    127144.86    -43501.32    3406.4045   -46907.725   0.24281099 
  104800    274.72312   -1191.3705    127260.65   -43494.099     3353.385   -46847.484   0.25317915 
  105000    275.00618    -935.5878    126870.91   -43528.352    3356.8401   -46885.192   0.28104547 
  105200    270.76571   -784.94789    126545.68   -43530.293    3305.0792   -46835.372   0.26884257 
  105400    279.32069   -915.66861     126776.6   -43522.125    3409.5048    -46931.63    0.2609922 
  105600    274.37967   -1204.7726    127257.96   -43509.224    3349.1927   -46858.416   0.26178003 
  105800    273.37746   -1146.5909     127198.6   -43528.128    3336.9593   -46865.087   0.24554264 
  106000    275.18254   -835.45378    126622.72   -43499.347    3358.9928    -46858.34   0.28489525 
  106200    277.50947   -748.27002     126483.4   -43485.291    3387.3963   -46872.688   0.29974577 
  106400    275.83091    -1075.747    127076.39   -43506.607    3366.9072   -46873.514   0.24355841 
  106600    272.25187   -1334.2658    127460.95   -43500.303    3323.2199   -46823.523   0.24832858 
  106800    273.50247   -1042.7891    126974.27   -43501.925    3338.4852    -46840.41   0.27515241 
  107000    274.79007   -684.88144    126385.96   -43471.423    3354.2022   -46825.626   0.28082897 
  107200    275.60822   -881.12059    126676.12   -43458.463    3364.1889   -46822.652   0.27563501 
  107400    273.80125   -1285.8777    127361.49   -43452.616    3342.1323   -46794.748   0.26423234 
  107600    282.22741   -1202.5912    127327.15   -43432.459    3444.9855   -46877.444   0.24340071 
  107800    275.65033   -857.88401    126702.03   -43460.675     3364.703   -46825.378   0.28588273 
  108000    281.96332   -739.48755    126521.01   -43443.035    3441.7619   -46884.797   0.29624559 
  108200    278.53589   -1045.8446    127035.36   -43467.409    3399.9253   -46867.334   0.24187056 
  108400     274.5544   -1254.5614     127387.9   -43458.391    3351.3255   -46809.716    0.2437692 
  108600    276.09838   -1054.5271    127058.43   -43442.681    3370.1719   -46812.853   0.27473719 
  108800    272.40276   -819.57561    126634.59   -43463.913    3325.0617   -46788.974   0.26958605 
  109000    275.36716   -862.67951    126752.44   -43495.513    3361.2464   -46856.759   0.26922708 
  109200    274.93006   -1099.9114    127123.11   -43498.275     3355.911   -46854.186   0.26679931 
  109400    273.61321   -1100.7621    127145.78   -43476.395    3339.8369   -46816.232    0.2533437 
  109600    276.88309   -951.85223    126874.36    -43449.64    3379.7505    -46829.39   0.27160751 
  109800    275.77025   -919.58135    126757.83   -43501.548    3366.1668   -46867.715    0.2849185 
  110000    277.18188   -960.78892    126940.24   -43438.444    3383.3976   -46821.842   0.25285558 
  110200    283.40313   -1087.8008    127142.38   -43424.907    3459.3368   -46884.244   0.25755197 
  110400    274.52106    -1036.971     127060.7   -43471.834    3350.9186   -46822.752   0.26843792 
  110600    272.25208   -954.89381    126851.87   -43544.485    3323.2225   -46867.707   0.26159954 
  110800    271.85679   -930.05841    126820.16   -43540.195    3318.3974   -46858.593   0.27285128 
  111000    270.04426   -1029.0252    126994.08    -43539.91    3296.2729   -46836.183   0.26999927 
  111200    277.75941   -1043.8753    127073.08   -43522.404    3390.4473   -46912.851   0.25062567 
  111400    269.95331   -997.54481    126954.13   -43571.555    3295.1627   -46866.718   0.27544625 
  111600    276.97996   -954.51347     126820.4   -43616.406    3380.9329   -46997.339   0.27215248 
  111800     270.4493   -980.42728    126834.74   -43646.026    3301.2169   -46947.243   0.26127686 
  112000    275.75801   -1008.6406    126929.25    -43644.34    3366.0173   -47010.357    0.2579546 
  112200    275.72507   -1030.5307    126920.41   -43600.341    3365.6152   -46965.956   0.27624845 
  112400    271.69856   -956.75374    126850.75   -43581.982     3316.466   -46898.448   0.25994084 
  112600    269.82467    -998.9861    126862.63   -43559.081    3293.5925   -46852.673   0.27156241 
  112800    276.84325   -1008.0409    126978.98   -43574.472    3379.2642   -46953.736   0.27302563 
  113000    276.57084   -1058.3317    127034.66   -43553.363    3375.9391   -46929.303    0.2435526 
  113200    272.28011    -1030.364    126934.46   -43585.308    3323.5646   -46908.873   0.27192532 
  113400    270.28466    -926.6676    126786.57   -43569.215    3299.2073   -46868.422   0.28473343 
  113600    271.00284   -942.19526    126850.72   -43573.363    3307.9737   -46881.336   0.25368629 
  113800    274.56698   -1026.4379    127035.02   -43554.492    3351.4791   -46905.971   0.26145465 
  114000     276.9513   -1011.4254    127017.43   -43541.139    3380.5831   -46921.723   0.27301803 
  114200    276.11262   -969.47206    126844.71   -43556.267    3370.3458   -46926.613   0.26263502 
  114400    275.87508   -905.39991    126801.85    -43503.85    3367.4463   -46871.296   0.27154248 
  114600    277.21963     -1050.43    126961.55   -43479.234    3383.8585   -46863.092   0.27415327 
  114800    277.21759   -1067.3236    127062.53   -43450.637    3383.8336   -46834.471   0.24622987 
  115000     274.3334   -1065.2054     126950.4   -43473.818    3348.6279   -46822.446   0.27988894 
  115200    274.68852   -941.02662    126788.16   -43501.249    3352.9627   -46854.211   0.29557439 
  115400    270.47385   -936.67305    126813.99   -43516.406    3301.5166   -46817.922    0.2596091 
  115600      278.409   -1021.9238    127014.19   -43493.233    3398.3765    -46891.61   0.26529037 
  115800    274.35789   -1099.5997     127107.6   -43507.703    3348.9268    -46856.63   0.27060465 
  116000    275.42072   -983.85801    126904.28   -43501.578    3361.9002   -46863.478   0.25856791 
  116200    272.42113   -891.52904    126726.77     -43518.6     3325.286   -46843.886   0.28606684 
  116400    275.12999   -993.56166    126870.96   -43563.187    3358.3514   -46921.539   0.27962855 
  116600    275.07537   -1127.0283       127071   -43574.989    3357.6847   -46932.673   0.25115086 
  116800    274.74309     -1024.29    126978.76   -43526.343    3353.6287   -46879.971   0.27360065 
  117000    272.69873   -906.80794    126743.03   -43550.541    3328.6744   -46879.216   0.28896059 
  117200    277.40628    -905.5604    126766.93   -43548.383    3386.1367   -46934.519    0.2648858 
  117400    271.57388    -1089.244    127058.49   -43555.527    3314.9441   -46870.471   0.26544305 
  117600    275.20028   -1145.7683    127147.56   -43528.718    3359.2095   -46887.927   0.26758395 
  117800     280.5911   -976.34954    126877.22   -43498.365     3425.012   -46923.377   0.26392352 
  118000    279.79176   -867.13957    126708.59   -43490.784     3415.255   -46906.039    0.2793565 
  118200    272.18808    -1034.235    126925.87    -43526.97    3322.4413   -46849.412   0.27684424 
  118400    273.09989   -1156.0004    127157.77   -43553.592    3333.5712   -46887.163   0.24718131 
  118600    271.55844   -1052.5775    126992.18   -43581.194    3314.7556   -46895.949   0.26687388 
  118800    269.49835   -867.53101    126633.83   -43621.614    3289.6093   -46911.223   0.29054622 
  119000    271.83768   -848.16329    126615.44   -43631.501    3318.1642   -46949.665    0.2758043 
  119200    275.86618   -1090.1836    127008.37   -43629.562    3367.3377   -46996.899   0.25822247 
  119400    270.72813   -1227.7005    127217.35   -43655.193    3304.6204   -46959.814   0.26034118 
  119600    274.57901   -1016.2377    126897.16   -43604.606    3351.6259   -46956.231   0.26148585 
  119800    272.34594   -825.23882    126590.85   -43602.359    3324.3681   -46926.728   0.28298976 
  120000    268.82721   -948.94556    126813.72   -43625.255    3281.4171   -46906.672   0.28389273 
  120200     269.1318   -1182.6796    127228.16    -43593.46    3285.1351   -46878.595   0.24669778 
  120400    276.49156   -1145.2062    127162.36   -43628.704    3374.9713   -47003.675   0.24940686 
  120600    274.23446   -869.79178    126697.41   -43621.966    3347.4202   -46969.386   0.28540431 
  120800    268.49416   -812.56275    126577.33   -43623.928    3277.3517    -46901.28    0.2780057 
  121000    271.26138   -1074.4386     126988.9    -43607.54    3311.1296   -46918.669   0.26806451 
  121200     272.0483   -1236.7453     127273.1   -43609.483    3320.7351   -46930.218   0.25844829 
  121400    271.67627   -1001.2585    126953.87   -43605.163    3316.1938   -46921.357   0.25689334 
  121600    267.57767   -791.04156    126537.32   -43603.041    3266.1647   -46869.206   0.28897018 
  121800    271.20399   -875.70091    126683.12   -43598.743     3310.429   -46909.172   0.29323787 
  122000    271.93903   -1169.8062    127171.23    -43573.15    3319.4013   -46892.551   0.24877307 
  122200    275.40752   -1182.4843    127242.24   -43546.669    3361.7391   -46908.408   0.25644607 
  122400    275.80123   -925.22401    126800.19   -43514.579    3366.5449   -46881.124   0.28471831 
  122600    277.73545   -782.04967    126557.05   -43443.389    3390.1548   -46833.544   0.28374058 
  122800    279.32598   -992.22466    126958.99   -43435.338    3409.5695   -46844.907   0.26995871 
  123000    277.37222   -1248.5224    127431.08   -43461.091    3385.7211   -46846.812     0.248676 
  123200    273.44107   -1143.7351    127244.51   -43485.845    3337.7357   -46823.581   0.24394745 
  123400    272.47783   -823.50455    126664.22   -43571.429    3325.9781   -46897.407   0.28037208 
  123600    277.39485   -755.74431    126580.74   -43534.657    3385.9972   -46920.655   0.28651986 
  123800    276.16117   -1107.6469    127123.42   -43539.905    3370.9384   -46910.843   0.24691309 
  124000    273.00222   -1296.2947     127403.1   -43514.376     3332.379   -46846.755   0.24598868 
  124200     274.4856   -1026.6123    126968.15   -43511.015    3350.4857   -46861.501   0.26840218 
  124400     273.4928   -753.27906    126535.69   -43537.307    3338.3672   -46875.674   0.28226815 
  124600    276.16251   -906.40683    126775.42   -43548.284    3370.9549   -46919.239   0.27926514 
  124800    272.05502   -1226.9353    127281.67   -43546.417    3320.8171   -46867.234   0.25706924 
  125000    270.85361   -1185.4045    127234.32   -43557.237    3306.1522   -46863.389   0.24788965 
  125200    274.21352   -852.39519    126723.53    -43554.78    3347.1646   -46901.945    0.2756601 
  125400    273.65424   -787.93028    126596.24   -43606.058    3340.3379   -46946.396   0.27740764 
  125600    275.97865   -1046.7885    126990.79   -43612.023    3368.7106   -46980.734   0.25135285 
  125800    273.92649   -1181.9049     127255.2   -43582.417    3343.6611   -46926.078    0.2531659 
  126000    274.74733   -1092.6951    126967.31   -43573.376    3353.6805   -46927.056   0.26509541 
  126200    273.46356   -769.93049    126572.14   -43553.862    3338.0103   -46891.872   0.27849596 
  126400     276.4919   -864.38328    126728.07   -43582.507    3374.9755   -46957.482   0.28160916 
  126600    266.64197   -1164.3646    127195.32   -43582.873    3254.7431   -46837.616   0.26137007 
  126800    274.61772   -1161.5548    127233.82   -43564.446    3352.0985   -46916.545      0.24699 
  127000    276.94897   -926.47873    126794.86   -43590.738    3380.5547   -46971.292   0.27276904 
  127200    273.83308   -804.36734    126544.53   -43626.022    3342.5208   -46968.543   0.28084434 
  127400    271.18767   -983.86188    126854.14   -43614.924    3310.2299   -46925.154   0.26113993 
  127600    270.63856   -1184.7152    127227.65    -43604.87    3303.5272   -46908.397   0.25907377 
  127800    276.90242   -1058.3407    127070.12   -43608.472    3379.9865   -46988.458   0.24500302 
  128000    276.39467   -866.76573    126666.05   -43593.416    3373.7886   -46967.205   0.27082882 
  128200    271.20335   -885.45836       126667   -43563.358    3310.4212   -46873.779   0.29127674 
  128400    270.96679   -1068.3307    127045.02    -43589.39    3307.5336   -46896.923   0.25983192 
  128600    266.98892   -1179.9275    127221.33   -43602.019    3258.9781   -46860.997   0.24980601 
  128800    270.33647   -985.09015    126908.28   -43660.458    3299.8398   -46960.297    0.2669842 
  129000    271.01218    -865.9756    126576.79   -43682.476    3308.0877   -46990.563   0.27303676 
  129200    276.54046   -927.84061    126737.81   -43661.375    3375.5682   -47036.943   0.26544648 
  129400    268.49223   -1188.7215    127111.69   -43646.205    3277.3282   -46923.533   0.26588519 
  129600    274.08821   -1118.4601    127109.78   -43629.719     3345.635   -46975.354   0.24985369 
  129800    271.65769   -925.26327    126802.57   -43644.767    3315.9671   -46960.734   0.26628392 
  130000    270.31299   -940.66016    126685.74   -43667.322    3299.5531   -46966.875   0.28270245 
  130200    272.20427   -1008.8023    126836.91   -43667.745    3322.6388   -46990.384   0.26685638 
  130400    267.53239   -1076.8385    126986.47    -43661.24     3265.612   -46926.852    0.2616166 
  130600    271.73842   -1052.5736    126951.34   -43621.307    3316.9525   -46938.259     0.269726 
  130800     269.5659   -969.03322    126843.55    -43641.49    3290.4338   -46931.924    0.2556843 
  131000    266.73507   -988.14964    126834.95   -43664.284    3255.8796   -46920.164   0.26257949 
  131200     267.9845   -1039.4597    126948.71   -43633.398    3271.1306   -46904.528   0.27345554 
  131400    267.32384   -1068.3148    127009.36   -43640.677    3263.0663   -46903.743   0.24759952 
  131600    270.90985   -976.83961    126930.91   -43629.963    3306.8387   -46936.802   0.25472635 
  131800    272.74991   -986.11133    126867.96   -43609.797    3329.2992   -46939.097   0.27272583 
  132000    273.52922   -1003.2767    126912.22   -43564.665    3338.8118   -46903.477   0.25979954 
  132200    275.65437   -1095.8386    126995.44   -43581.854    3364.7523   -46946.606    0.2628991 
  132400    276.13533   -1008.6427    126992.34   -43588.652     3370.623   -46959.275   0.27318449 
  132600    273.61931   -960.67207    126930.17   -43551.623    3339.9115   -46891.535    0.2536199 
  132800    277.98442   -936.11693    126916.93   -43531.227    3393.1938   -46924.421   0.25911361 
  133000    274.41308   -998.25881    126978.63   -43517.936    3349.6005   -46867.536   0.27467129 
  133200     276.1299   -981.42155    127017.45   -43492.929    3370.5567   -46863.486   0.25533482 
  133400    281.74322   -1018.2484    126975.28   -43471.152    3439.0752   -46910.227   0.26478948 
  133600    277.37236   -958.19333    126900.72   -43476.096    3385.7227   -46861.819   0.27816851 
  133800    275.30045   -964.40523    126906.85   -43500.198    3360.4321    -46860.63   0.26494764 
  134000    272.38417   -1004.9795    126967.16   -43455.313    3324.8348   -46780.148   0.27553133 
  134200    279.71981   -991.76133    127003.57   -43464.669    3414.3767   -46879.046   0.27906113 
  134400    276.56313   -1022.8094    126973.16   -43455.737    3375.8449   -46831.582   0.25899837 
  134600    277.81306   -978.04822    126936.03    -43476.92    3391.1021   -46868.022   0.26328231 
  134800    273.32646   -1035.5039    126961.37   -43506.785    3336.3368   -46843.121   0.27903549 
  135000    275.72116   -1030.1987    126976.34   -43572.613    3365.5675   -46938.181   0.25358861 
  135200    275.11737   -996.62744    126923.07    -43558.04    3358.1974   -46916.237   0.26936388 
  135400    275.46351   -970.07928    126826.06   -43575.104    3362.4225   -46937.526   0.28162342 
  135600    273.91108   -921.68958    126828.39   -43550.023    3343.4728   -46893.496   0.26533976 
  135800    278.57603   -1028.4823    126968.53   -43617.491    3400.4153   -47017.906   0.26360685 
  136000    268.30317   -1083.3666    127003.53   -43638.296    3275.0204   -46913.316   0.28005526 
  136200    275.48659   -909.19742     126791.3   -43637.955    3362.7042   -47000.659   0.26540809 
  136400    269.70971   -878.62452    126684.96   -43610.045    3292.1893   -46902.234   0.27105886 
  136600    274.41151   -1006.1861    126923.34   -43554.949    3349.5813   -46904.531   0.27490984 
  136800      276.133   -1135.6513    127198.65   -43562.985    3370.5946    -46933.58   0.25080823 
  137000    274.46333    -1097.792    127060.02   -43570.573    3350.2139   -46920.787   0.26715254 
  137200    273.67746   -830.83514    126649.82   -43600.983    3340.6212   -46941.604   0.29125393 
  137400    267.03932   -874.37704    126645.21   -43568.717    3259.5933   -46828.311   0.27825581 
  137600    277.02799   -1081.7685    127141.93   -43553.698    3381.5192   -46935.217    0.2530197 
  137800    275.79544   -1213.4997    127371.84   -43515.955    3366.4742   -46882.429   0.26203863 
  138000    277.34268   -996.81514    126908.92   -43543.978    3385.3605   -46929.338    0.2685104 
  138200    273.52649   -705.66255    126473.32   -43588.387    3338.7784   -46927.165    0.2791222 
  138400     276.4903   -894.54131    126774.61   -43564.298    3374.9559   -46939.254   0.27722788 
  138600    274.10128   -1253.0051    127304.55   -43570.953    3345.7945   -46916.747   0.24554516 
  138800    277.30226    -1163.442    127187.12   -43508.328     3384.867   -46893.195   0.26128592 
  139000    275.18176   -857.34845    126629.29    -43526.03    3358.9834   -46885.014   0.30078588 
  139200    277.94393   -768.03527    126549.55   -43525.646    3392.6996   -46918.346   0.28020909 
  139400    279.14993   -1099.7392    127069.04   -43544.912    3407.4206   -46952.332    0.2578544 
  139600    275.95201   -1230.9639    127361.27   -43523.967    3368.3853   -46892.352   0.25410596 
  139800    274.96332   -1053.6639    126972.38   -43488.676    3356.3169   -46844.992   0.27347571 
  140000    280.36283   -789.33554    126528.97   -43477.428    3422.2256   -46899.654   0.29100523 
  140200    274.02882   -868.06738    126699.81   -43506.011    3344.9101   -46850.921   0.28554167 
  140400    273.23159   -1221.4629    127203.69   -43522.595    3335.1788   -46857.773   0.25561312 
  140600    278.92495   -1218.4819    127228.04   -43522.492    3404.6743   -46927.166   0.25725893 
  140800    273.66025   -935.82725    126746.48   -43522.652    3340.4111   -46863.063   0.29460783 
  141000    272.35073   -788.10637    126508.58   -43563.869    3324.4266   -46888.295   0.28769389 
  141200    277.23047   -985.32021    126862.56   -43518.808    3383.9908   -46902.799   0.27320057 
  141400    273.29517   -1233.0888    127260.97    -43504.67    3335.9548   -46840.625   0.26885604 
  141600    271.51955   -1139.8834    127101.76   -43487.958    3314.2809   -46802.239   0.27070549 
  141800     272.3106   -877.37514    126649.73   -43553.821    3323.9368   -46877.758   0.27936177 
  142000    268.90683   -850.76669    126608.73    -43553.97    3282.3889   -46836.358   0.29172396 
  142200    270.65391   -1089.7863    127067.78    -43563.49    3303.7145   -46867.205   0.25868415 
  142400    267.94457   -1287.8892    127301.26   -43555.959    3270.6432   -46826.602   0.26026911 
  142600    275.14204   -1029.6577    126934.64   -43535.406    3358.4985   -46893.905   0.28456755 
  142800    272.24758   -797.70706    126552.13   -43563.494    3323.1676   -46886.661   0.28883706 
  143000    274.29138   -929.20757    126747.97   -43590.338     3348.115   -46938.453   0.27307941 
  143200    272.22263   -1169.9141    127175.51   -43572.892     3322.863   -46895.755   0.26464449 
  143400    271.46544   -1130.8661    127129.99   -43551.423    3313.6205   -46865.044   0.25724127 
  143600    272.95337   -897.98406     126745.8   -43536.828    3331.7827    -46868.61    0.2777741 
  143800      277.884   -843.06455    126659.74   -43545.737     3391.968   -46937.705   0.28240322 
  144000    269.34522   -1042.4333    126972.74   -43525.378    3287.7401   -46813.118   0.26915444 
  144200    276.92749   -1104.3823    127162.19   -43501.829    3380.2925   -46882.122    0.2561518 
  144400     276.5141   -1028.3295    126981.02   -43501.601    3375.2464   -46876.847   0.27496905 
  144600    278.33966   -871.43032     126743.5   -43484.983      3397.53   -46882.513   0.27849018 
  144800    278.24328   -948.40219     126833.2   -43469.339    3396.3536   -46865.693   0.27799583 
  145000    277.22789   -1091.6071    127058.47   -43504.476    3383.9592   -46888.435   0.26627819 
  145200    275.84884   -1096.8612    127051.36   -43531.027    3367.1261   -46898.153   0.25690664 
  145400    275.00817   -985.45533    126860.95   -43529.847    3356.8645   -46886.711   0.27521363 
  145600    277.20892   -930.76272    126786.43   -43551.511    3383.7278   -46935.239   0.28255274 
  145800    274.86167   -987.27396     126903.5   -43567.494    3355.0762    -46922.57   0.26671262 
  146000    273.44145   -1076.6617    126992.29   -43546.552    3337.7404   -46884.292   0.26937319 
  146200    276.84872   -1020.3287    126937.78   -43578.354     3379.331   -46957.685   0.27174127 
  146400    271.82371   -980.40864    126867.59   -43536.068    3317.9936   -46854.061   0.27178396 
  146600    278.32728   -930.07654    126910.25   -43491.819    3397.3788   -46889.198   0.26601903 
  146800    277.78114   -1018.4062    127036.18   -43455.759    3390.7125   -46846.472   0.26261713 
  147000    277.22057   -1034.6793    127052.88   -43456.234      3383.87   -46840.104   0.25703869 
  147200    274.35976   -1005.6994    126969.88   -43436.311    3348.9497    -46785.26   0.26817422 
  147400    278.61454   -953.87069    126944.33   -43487.205    3400.8853    -46888.09   0.26791749 
  147600    275.80429   -1012.2801    127014.64   -43513.098    3366.5822    -46879.68   0.25441467 
  147800      276.306   -1022.0363    127024.17   -43552.162    3372.7063   -46924.868   0.25826242 
  148000    271.88155   -1003.8447    126929.44   -43522.375    3318.6996   -46841.075   0.27679983 
  148200    273.95011   -956.09834    126863.12   -43572.778    3343.9493   -46916.727   0.26483448 
  148400    273.47252   -1041.5949    126930.45   -43592.499    3338.1197   -46930.618   0.26828781 
  148600    273.13725   -1027.9838    127021.95   -43564.684    3334.0272   -46898.711   0.26229673 
  148800    273.88392   -1047.6358    126982.81   -43577.676    3343.1414   -46920.818   0.25363583 
  149000     273.7688   -937.94319    126868.59    -43586.55    3341.7362   -46928.286   0.26380932 
  149200    269.10118   -918.21386    126885.26   -43604.766    3284.7612   -46889.527   0.26911618 
  149400    271.23685    -1025.131    126969.73   -43622.633    3310.8301   -46933.463   0.25588619 
  149600    272.64915   -1040.6908    126978.02   -43604.675    3328.0692   -46932.744   0.25887723 
  149800    275.39827   -973.16725    126890.96   -43618.905    3361.6261   -46980.531   0.27093732 
  150000    275.57634   -908.93704    126855.26   -43564.842    3363.7998   -46928.642   0.25914385 
  150200    273.13677   -988.06204    126948.93    -43512.06    3334.0213   -46846.082   0.26816021 
  150400    278.19243   -1057.4671    127031.63   -43512.798    3395.7328   -46908.531   0.26550011 
  150600    278.88721   -995.99805    126936.01   -43524.685    3404.2136   -46928.898   0.25338378 
  150800    278.46959   -912.81146    126792.09   -43517.769    3399.1159   -46916.885   0.26883386 
  151000    275.95308   -948.35317     126870.6   -43542.053    3368.3984   -46910.451   0.28219104 
  151200    274.66236   -1074.6158    127097.18    -43525.65    3352.6433   -46878.293   0.24895261 
  151400    281.10032   -1070.8838    127129.04   -43455.614    3431.2277   -46886.842   0.25805025 
  151600    276.60971   -973.24196    126891.55   -43443.481    3376.4135   -46819.895   0.28180267 
  151800    277.42751   -857.57964    126726.21   -43415.711     3386.396   -46802.107   0.27625605 
  152000    277.80345   -1002.8914    126981.58   -43436.842    3390.9848   -46827.827   0.27454663 
  152200    281.73218   -1217.2142    127292.75   -43450.749    3438.9405   -46889.689    0.2600775 
  152400    278.60632   -1071.1241    127087.52    -43490.53    3400.7849   -46891.315    0.2451293 
  152600     273.2365   -783.64481    126608.02   -43486.767    3335.2387   -46822.005    0.2819282 
  152800    279.48616   -821.85993    126646.31   -43431.357    3411.5247   -46842.882   0.30043431 
  153000    276.10065   -1146.5407    127212.19   -43469.529    3370.1997   -46839.729   0.24477548 
  153200    282.04855   -1201.5206    127408.37   -43412.869    3442.8023   -46855.671   0.24509446 
  153400    278.16324   -954.75728     126954.8   -43464.198    3395.3766   -46859.575   0.27049955 
  153600    280.97839   -754.67041    126576.12    -43508.71    3429.7394    -46938.45   0.26760459 
  153800    276.09485   -907.73237    126855.78   -43511.214     3370.129   -46881.343    0.2693363 
  154000    275.65902   -1243.1789    127365.92   -43534.715    3364.8089   -46899.524     0.251682 
  154200    273.35458   -1170.0135    127271.24   -43491.864      3336.68   -46828.544      0.23702 
  154400    277.53083   -840.32707    126737.49   -43483.039    3387.6571   -46870.696   0.27491273 
  154600    275.47751   -769.76996     126623.1    -43503.31    3362.5934   -46865.903    0.2902863 
  154800     275.1772   -1077.1118    127078.87   -43527.119    3358.9276   -46886.047   0.24680613 
  155000    276.71655   -1201.0761    127342.46   -43496.641    3377.7176   -46874.359   0.24720186 
[...]
  163000    273.37731   -939.87074    126814.47   -43569.415    3336.9575   -46906.372   0.27948904 
  163200    279.88109   -1034.3834    126983.36   -43559.607    3416.3453   -46975.953   0.25846458 
  163400    271.67218   -1047.5464    127019.19   -43584.314     3316.144   -46900.458   0.25950038 
  163600    269.04227   -1041.0492     126873.9   -43554.752    3284.0422   -46838.795   0.28320415 
  163800    272.95467   -903.53061    126763.68   -43614.947    3331.7985   -46946.746    0.2666358 
  164000     275.7772   -1002.8861    126849.02   -43608.503    3366.2516   -46974.755   0.26387608 
  164200    269.03149   -1027.9735    126972.01   -43616.784    3283.9106   -46900.694   0.26650868 
  164400    267.78898   -1015.1688    126945.49   -43575.436     3268.744   -46844.179    0.2586384 
  164600    273.95937   -999.79073     126859.9   -43543.927    3344.0623   -46887.989   0.26545271 
  164800    270.18546   -987.04298    126815.26    -43587.36    3297.9964   -46885.357   0.28426421 
  165000     272.7951   -1001.9361     126867.7   -43575.359    3329.8508    -46905.21   0.26410701 
  165200    275.73032   -1041.8005    126952.35   -43561.076    3365.6794   -46926.755   0.26502684 
  165400    270.20436   -1062.5078    126915.07   -43574.333    3298.2271    -46872.56   0.27451317 
  165600    278.24476   -957.68788    126813.44    -43534.54    3396.3717   -46930.912   0.26121174 
  165800    273.77815   -954.99141    126842.57   -43537.383    3341.8503   -46879.233   0.26996289 
  166000    275.88132   -1038.4735    126940.56   -43502.974    3367.5224   -46870.496   0.27214228 
  166200    274.02579   -1039.7102     126941.7   -43543.447    3344.8731    -46888.32   0.25698286 
  166400    274.75489   -1027.6345    126894.11   -43537.347    3353.7727    -46891.12   0.26486723 
  166600    277.09548    -971.7558    126858.08   -43537.111    3382.3431   -46919.454   0.27034439 
  166800    269.54599   -1047.4166    126867.08   -43596.766    3290.1908   -46886.957   0.26798761 
  167000    271.88665   -980.09765    126871.69   -43586.543    3318.7619   -46905.305   0.27438386 
  167200     275.6615   -1000.0931    126902.39   -43553.457    3364.8392   -46918.297   0.26616502 
  167400    274.15617    -1004.365     126949.5   -43577.178    3346.4646   -46923.643   0.24834619 
  167600    277.89129   -1002.1158    126953.73   -43574.478    3392.0571   -46966.535    0.2599777 
  167800    272.42616   -1046.9154    126914.39   -43617.285    3325.3474   -46942.632   0.26348749 
  168000    279.18957   -963.05966    126850.51   -43632.119    3407.9044   -47040.023   0.25253501 
  168200    276.47699   -1045.7227    126861.22   -43620.293    3374.7935   -46995.086   0.26781172 
  168400    272.13381   -969.82016    126895.74   -43598.562    3321.7788   -46920.341   0.25980958 
  168600    273.29649   -1039.9965    126938.27    -43558.28    3335.9709   -46894.251   0.25556074 
  168800    267.58147   -1007.9875    126915.68   -43620.805     3266.211   -46887.016   0.27185734 
  169000    277.01122   -952.76991    126847.03   -43614.273    3381.3145   -46995.588   0.26363613 
  169200    269.17565   -985.23808    126876.43   -43596.097    3285.6703   -46881.768   0.25299388 
  169400    276.10291   -1006.8593    126971.49   -43610.149    3370.2272   -46980.376   0.26048033 
  169600    273.06862   -1033.6912    126955.54   -43621.943    3333.1895   -46955.132   0.26956713 
  169800    267.23166   -985.07482    126840.45   -43621.241    3261.9411   -46883.183   0.25534154 
  170000    274.03503   -961.35916    126813.52   -43658.516    3344.9859   -47003.502    0.2653315 
  170200    271.27905   -1035.4752    126888.02   -43662.778    3311.3453   -46974.123   0.26498761 
  170400    268.87813   -1049.8811    126948.84    -43650.42    3282.0387   -46932.459   0.25681635 
  170600    268.10225   -1009.7089    126906.83   -43626.204     3272.568   -46898.772   0.26253446 
  170800    269.45753   -1024.9314     126844.2   -43657.732    3289.1111   -46946.843   0.27744768 
  171000    271.40659   -989.67283    126845.43   -43641.159    3312.9021   -46954.061   0.25277773 
  171200    269.76542   -1014.6195    126875.52   -43659.163    3292.8693   -46952.032   0.25996642 
  171400    267.83052   -1045.4152    126839.51   -43662.629     3269.251    -46931.88   0.27758483 
  171600    266.96064   -983.05884    126781.45   -43636.385    3258.6329   -46895.018   0.26697797 
  171800    276.84578   -952.55383    126813.07   -43607.903    3379.2951   -46987.198   0.26174463 
  172000    270.57339   -1013.5846    126910.89   -43608.635    3302.7317   -46911.367   0.26916334 
  172200     269.7471   -1049.4795    126925.09   -43638.313    3292.6456   -46930.959   0.26064266 
  172400    267.95635   -996.14577    126816.29   -43614.473     3270.787    -46885.26   0.27397482 
  172600    272.01169   -933.57829    126811.05   -43584.341    3320.2882    -46904.63   0.28899285 
  172800    272.27985   -1029.2574    127014.04   -43588.246    3323.5615   -46911.807   0.25109362 
  173000    275.29417   -1118.2138    127070.87   -43596.303    3360.3555   -46956.658   0.24966784 
  173200    276.13572   -941.16444    126798.73   -43632.777    3370.6277   -47003.405   0.27511318 
  173400    272.26454   -891.47618    126630.19   -43637.295    3323.3746   -46960.669   0.27305416 
  173600    272.63701   -964.81317    126884.52   -43590.262    3327.9211   -46918.183   0.26222414 
  173800    276.33643   -1178.3371    127243.67   -43575.397    3373.0778   -46948.475   0.26268417 
  174000    275.85539   -1115.7871    127082.91   -43544.802     3367.206   -46912.008   0.25541062 
  174200    274.25836   -788.90741    126606.57    -43539.15    3347.7119   -46886.862   0.27466389 
  174400    270.95592    -886.1705     126615.1   -43529.056     3307.401   -46836.457   0.29815733 
  174600     275.2537   -1106.9272    127128.65   -43525.978    3359.8615    -46885.84   0.25636451 
  174800    279.80687   -1233.2352    127316.51   -43506.081    3415.4394    -46921.52   0.23732415 
  175000    276.05652   -962.18351    126882.85    -43542.21     3369.661   -46911.871   0.26867897 
  175200    273.91753   -768.45855    126518.35   -43549.542    3343.5516   -46893.094   0.27949163 
  175400    272.96703   -938.92263    126809.26   -43562.142    3331.9495   -46894.092   0.26755253 
  175600    273.19181   -1214.2356    127276.21   -43562.483    3334.6931   -46897.176   0.25519402 
  175800    272.41071   -1187.8685    127200.01   -43537.123    3325.1588   -46862.281   0.25848567 
  176000    272.89767   -852.60834     126720.3   -43551.917    3331.1028   -46883.019    0.2677347 
  176200    274.26102   -808.21851    126627.07    -43506.06    3347.7445   -46853.805   0.29184268 
  176400    276.94411   -1039.2644    127095.26   -43513.464    3380.4953   -46893.959   0.25894523 
  176600    276.79471    -1187.123    127328.99   -43498.083    3378.6718   -46876.754   0.23372213 
  176800    272.22722   -986.99771    126954.93   -43523.072     3322.919   -46845.991   0.26106419 
  177000    274.52954   -786.90082    126584.52   -43520.761     3351.022   -46871.783    0.2830646 
  177200    274.17763   -900.97724    126780.13    -43550.59    3346.7266   -46897.317   0.26232303 
  177400    273.74813   -1179.3635    127170.36   -43601.544    3341.4838   -46943.028   0.26096222 
  177600    273.85789   -1115.1449    127034.99   -43596.622    3342.8236   -46939.446   0.26212783 
  177800    273.59176   -849.20366    126603.45   -43567.338    3339.5752   -46906.913   0.27024246 
  178000    276.45329   -851.93851    126632.73   -43545.639    3374.5042   -46920.143   0.28075845 
  178200    273.57257   -1126.1588    127073.72   -43544.887    3339.3409   -46884.228   0.26346674 
  178400    272.51793   -1189.0712    127186.79   -43551.091    3326.4675   -46877.559   0.24056097 
  178600    276.73616   -961.92998    126799.67   -43543.633     3377.957    -46921.59   0.27797371 
  178800     276.4949   -766.49149    126511.48   -43534.988    3375.0121       -46910   0.28596688 
  179000    277.63986   -931.41249    126793.52   -43499.412    3388.9879     -46888.4   0.26414378 
  179200    270.25316   -1218.4484    127249.53   -43519.782    3298.8228   -46818.604   0.26154432 
  179400    274.71679   -1149.9637    127145.19   -43508.966    3353.3078   -46862.274   0.26925323 
  179600    276.35572   -858.76411    126644.08   -43520.703    3373.3132   -46894.016   0.27303181 
  179800    280.95331   -791.22716    126545.55   -43537.763    3429.4333   -46967.196   0.28314384 
  180000    273.32181   -1067.4711    127009.91   -43517.777      3336.28   -46854.057   0.27042999 
  180200    278.58231   -1234.1394    127338.54   -43465.268    3400.4918    -46865.76   0.24013699 
  180400    279.31156   -1051.2799    127009.98   -43446.874    3409.3934   -46856.267   0.26306529 
  180600    274.73198   -773.66685    126569.28   -43496.515    3353.4931   -46850.008   0.28443242 
  180800    275.32356   -886.07798    126682.68   -43490.575    3360.7142   -46851.289   0.27129131 
  181000    271.14455   -1134.4298    127164.23   -43517.262    3309.7035   -46826.965   0.26031674 
  181200     271.3956   -1194.8779    127270.75   -43499.635    3312.7679   -46812.403   0.26086734 
  181400    276.71267   -958.82551    126850.86   -43542.928    3377.6703   -46920.598   0.26465567 
  181600     271.9878   -783.66014    126542.42   -43563.484    3319.9965   -46883.481   0.28123669 
  181800    277.46734   -961.05333    126818.67   -43554.796    3386.8821   -46941.678   0.27259506 
  182000    273.44008   -1133.0153    127206.86   -43526.055    3337.7237   -46863.778   0.25212299 
  182200    276.71873   -1088.1559    127108.23   -43538.543    3377.7443   -46916.287   0.25507089 
  182400    272.57438   -907.36217    126715.39    -43551.82    3327.1566   -46878.977   0.27811273 
  182600    272.02027   -843.96659    126682.55    -43532.51    3320.3929   -46852.903   0.27611162 
  182800    272.55853   -1101.3254     127018.9   -43502.108    3326.9632   -46829.071   0.26550609 
  183000    273.98155    -1176.577    127187.66   -43473.227    3344.3331    -46817.56   0.27254621 
  183200    277.23847   -1007.2115    126953.18   -43467.726    3384.0885   -46851.815    0.2700524 
  183400    277.00318    -887.1816    126730.59   -43478.575    3381.2163   -46859.792   0.27005127 
  183600    275.70953   -990.17866    126851.69   -43512.813    3365.4255   -46878.239   0.27709976 
  183800    272.74481   -1080.7514    127082.31    -43518.41    3329.2369   -46847.646   0.26683203 
  184000    274.85766   -1096.2965    127061.28   -43547.219    3355.0273   -46902.246   0.26104714 
  184200    274.12112   -940.64074    126822.68   -43589.033    3346.0367    -46935.07   0.27536413 
  184400    274.46269   -846.95341    126722.88   -43577.419    3350.2061   -46927.625   0.27630597 
  184600    276.44302   -1022.3916    126912.82   -43602.149    3374.3788   -46976.528   0.26177258 
  184800    271.45662   -1108.1513    127071.37   -43581.878    3313.5127   -46895.391   0.26625843 
  185000    274.79516   -1048.5209    126992.49   -43583.431    3354.2643   -46937.696   0.26754334 
  185200    276.58771   -938.88581    126847.97   -43626.579     3376.145   -47002.724   0.25810727 
  185400    271.50127   -967.12631    126840.79   -43607.014    3314.0578   -46921.072   0.27661868 
  185600    273.98072   -1034.9101    126942.93   -43613.126     3344.323   -46957.449   0.26934113 
  185800    275.25554    -1057.652     126964.6   -43571.804    3359.8839   -46931.687   0.26020265 
  186000    275.13674   -985.12537    126902.95   -43567.435    3358.4338   -46925.869   0.26614041 
  186200    274.57949   -986.02424    126877.44   -43548.885    3351.6318   -46900.517   0.27113691 
  186400    277.65031   -978.30406    126934.72   -43515.575    3389.1154   -46904.691   0.25467118 
  186600    274.57754   -1012.8978    126994.65   -43525.617    3351.6079   -46877.225   0.26452079 
  186800    271.04359   -1043.0517    126952.73   -43550.852    3308.4711   -46859.323   0.27486335 
  187000    274.75746   -958.30797    126848.26   -43516.248    3353.8042   -46870.052   0.26638638 
  187200    281.81724   -978.39444    126871.39   -43547.129    3439.9788   -46987.107   0.26542488 
  187400    271.55751   -1007.8719    127001.51   -43528.213    3314.7442   -46842.957   0.26393866 
  187600    274.31788   -1056.0526    127016.54   -43567.089    3348.4385   -46915.528   0.25051396 
  187800     275.1322   -990.29802    126857.25   -43571.004    3358.3784   -46929.383   0.26563701 
  188000    273.83427   -922.32741     126745.8   -43545.241    3342.5353   -46887.776   0.28187215 
  188200    278.03781   -957.59621    126865.16   -43517.742    3393.8455   -46911.587   0.25724227 
  188400    273.19459   -1122.0546    127037.07   -43503.613    3334.7271    -46838.34   0.26219355 
  188600     276.2528   -1052.1739    126993.27   -43512.465    3372.0569   -46884.522   0.27659674 
  188800    272.72531   -912.08944       126765   -43524.686    3328.9989   -46853.685   0.27108396 
  189000    275.35351   -914.45948    126723.65   -43525.858    3361.0798   -46886.938   0.27360441 
  189200    275.05216   -1059.4117    126999.78   -43523.215    3357.4014   -46880.616   0.26421248 
  189400    274.83112   -1157.2842    127174.98   -43509.603    3354.7032   -46864.306   0.25401426 
  189600    276.35999   -1023.7629     126935.1   -43507.412    3373.3653   -46880.777   0.27081407 
  189800    276.84916   -838.22804    126620.93    -43551.59    3379.3363   -46930.926   0.27663403 
  190000    274.24922   -909.84925    126758.09   -43572.056    3347.6003   -46919.656   0.27490929 
  190200    274.45664   -1164.0733    127168.57   -43546.108    3350.1322   -46896.241   0.25989111 
  190400    273.88445   -1218.0554    127161.77   -43549.337    3343.1479   -46892.485   0.26795513 
  190600    274.46906    -855.7063     126672.6   -43510.791    3350.2838   -46861.075   0.28352305 
  190800    274.54046   -757.61475    126528.56   -43508.442    3351.1554   -46859.598   0.28534899 
  191000    276.28931   -1090.0275    127020.23   -43541.978    3372.5026   -46914.481   0.25992389 
  191200    270.76187   -1271.4112    127332.98   -43542.649    3305.0324   -46847.682    0.2532235 
  191400    274.87916   -1067.0521    126939.11   -43558.841    3355.2897   -46914.131   0.26656842 
  191600    281.07332   -717.82426    126437.23    -43514.93    3430.8982   -46945.828   0.29086063 
  191800    274.50564   -870.81658    126682.39   -43545.621    3350.7304   -46896.351   0.28373387 
  192000    275.65579   -1210.2923    127295.82   -43549.024    3364.7695   -46913.794   0.25068458 
  192200    273.54266   -1207.0601    127317.94   -43514.203    3338.9758   -46853.178   0.24788379 
  192400    270.58675   -903.93607    126726.31   -43525.973    3302.8947   -46828.867   0.28411932 
  192600    271.66338   -724.35614    126471.03   -43568.578    3316.0365   -46884.614   0.27898598 
  192800    278.14461   -957.26506    126953.91   -43540.867    3395.1492   -46936.016   0.24880079 
  193000    273.58028   -1273.4778     127418.2   -43523.025     3339.435    -46862.46     0.247048 
  193200    278.45131   -1132.4426    127138.56   -43501.302    3398.8928   -46900.195   0.25648317 
  193400    273.21491   -789.35486    126589.05   -43495.112    3334.9752   -46830.087   0.28200226 
  193600    276.65102   -793.13943    126620.88   -43516.597    3376.9177   -46893.515   0.28989449 
  193800    276.16385   -1096.4593    127130.98   -43531.976    3370.9711   -46902.947   0.25669471 
  194000    272.30819   -1204.7246    127283.46   -43564.788    3323.9074   -46888.695   0.25014861 
  194200    268.07043   -961.77972    126851.35   -43546.606    3272.1795   -46818.785   0.27465602 
  194400    274.02728   -788.33323    126524.01   -43546.245    3344.8913   -46891.136   0.28330605 
  194600    278.48822   -950.36842    126797.61   -43544.374    3399.3434   -46943.717   0.25605283 
  194800     277.4513   -1170.9887     127212.8    -43544.19    3386.6864   -46930.876   0.25278959 
  195000    274.02961   -1129.1108    127173.73   -43523.959    3344.9198   -46868.878   0.25884739 
  195200    278.59607   -894.50411    126804.46   -43502.253    3400.6599   -46902.913   0.26147226 
  195400    277.16684    -852.8139    126679.17   -43524.214    3383.2141   -46907.429   0.28246929 
  195600    274.67523   -1023.9203    126957.55   -43527.277    3352.8004   -46880.078   0.26204983 
  195800    267.98367    -1184.362    127191.45   -43559.039    3271.1205   -46830.159   0.24557613 
  196000    274.24213   -1036.9598    127032.48   -43546.795    3347.5138   -46894.309   0.25997029 
  196200     275.2457   -897.04144    126785.46   -43516.044    3359.7639   -46875.808    0.2728266 
  196400    273.73062   -938.72034    126840.72   -43538.448    3341.2701   -46879.718   0.26204085 
  196600    272.08938    -1119.648    127039.45   -43579.531    3321.2365   -46900.767   0.26216058 
  196800    276.49783   -1112.2902    127008.65    -43566.98    3375.0478   -46942.028   0.26548618 
  197000    273.57268   -933.91246    126758.25   -43576.616    3339.3422   -46915.958   0.26717611 
  197200    268.73575   -912.06513    126685.97   -43613.232    3280.3007   -46893.532   0.27742557 
  197400    271.99281   -1001.4281     126897.3   -43604.962    3320.0577   -46925.019   0.26825594 
  197600     273.6321   -1083.6311    127057.19   -43539.138    3340.0676   -46879.205   0.25388987 
  197800    272.14404   -1035.0533    126965.51     -43508.1    3321.9037   -46830.004    0.2662626 
  198000    279.65955   -939.27935    126788.67   -43534.296    3413.6411   -46947.938   0.27054551 
  198200    272.10161   -934.38065     126787.9   -43556.686    3321.3858   -46878.071   0.26474041 
  198400    269.64435   -1039.4158     126946.6    -43497.04    3291.3914   -46788.432   0.26895409 
  198600    274.16559   -1065.0748    127007.33   -43473.106    3346.5795   -46819.686   0.26830527 
  198800    276.67786   -985.15486    126896.81   -43507.822    3377.2454   -46885.068   0.26114175 
  199000     276.2213   -944.45914    126787.13   -43499.569    3371.6724   -46871.241   0.27624526 
  199200    276.44288   -990.36446    126852.52   -43507.238    3374.3771   -46881.615    0.2748378 
  199400    278.76694   -1016.3796       126974   -43511.635    3402.7456    -46914.38   0.25685243 
  199600    269.18108   -1066.9224    126944.97   -43535.166    3285.7365   -46820.903   0.26787361 
  199800    275.21709   -912.93656    126783.73   -43518.308    3359.4146   -46877.723   0.27777627 
  200000    279.61133   -921.44784    126783.18   -43522.291    3413.0525   -46935.343   0.26888829 
Loop time of 249.152 on 6 procs for 200000 steps with 4096 atoms

Performance: 346.776 ns/day, 0.069 hours/ns, 802.722 timesteps/s
98.8% CPU use with 6 MPI tasks x no OpenMP threads

MPI task timing breakdown:
Section |  min time  |  avg time  |  max time  |%varavg| %total
---------------------------------------------------------------
Pair    | 170.11     | 177.2      | 186.75     |  42.4 | 71.12
Neigh   | 11.759     | 12.179     | 12.876     |  14.1 |  4.89
Comm    | 37.005     | 47.246     | 54.617     |  88.4 | 18.96
Output  | 3.5907     | 3.5923     | 3.5998     |   0.2 |  1.44
Modify  | 6.7714     | 6.8211     | 6.8875     |   1.4 |  2.74
Other   |            | 2.113      |            |       |  0.85

Nlocal:        682.667 ave         710 max         667 min
Histogram: 1 2 1 0 0 0 1 0 0 1
Nghost:        1587.33 ave        1614 max        1569 min
Histogram: 1 0 3 0 0 0 1 0 0 1
Neighs:        0.00000 ave           0 max           0 min
Histogram: 6 0 0 0 0 0 0 0 0 0
FullNghs:      21435.7 ave       22343 max       20920 min
Histogram: 1 2 1 0 0 0 1 0 0 1

Total # of neighbors = 128614
Ave neighs/atom = 31.399902
Neighbor list builds = 13179
Dangerous builds = 0

Total wall time: 0:06:10
