
# Define the lattice
#
variable	    lattice_constant equal 6.36339
lattice		    diamond ${lattice_constant}
lattice		    diamond 6.36339
Lattice spacing in x,y,z = 6.3633900 6.3633900 6.3633900

# Define region
# multiples of lattice spacing
#
region 		    simbox block 0 8 0 8 0 8

# Create Atoms
#
create_box          1 simbox
Created orthogonal box = (0.0000000 0.0000000 0.0000000) to (50.907120 50.907120 50.907120)
  1 by 2 by 3 MPI processor grid
create_atoms        1 box
Created 4096 atoms
  create_atoms CPU = 0.000 seconds
mass                1 18.015

# Define potential
#
pair_style          sw
pair_coeff          * * mW_real.sw mW
Reading sw potential file mW_real.sw with DATE: 2019-02-27

# Add velocity/set timestep
#
velocity            all create ${TEMP} 120598 rot yes dist gaussian
velocity            all create 275 120598 rot yes dist gaussian
timestep            5.0

# Define output
#
compute	            1 all msd
thermo              100
thermo_style        custom step temp press vol etotal ke pe c_1[4]

# Neighbor lists
#
neigh_modify        delay 0 every 1 check yes

# Set fixes
#
fix                 1 all momentum 10 linear 1 1 1 rescale
fix                 2 all nve
fix                 3 all temp/csvr ${TEMP} ${TEMP} 500.0 928347
fix                 3 all temp/csvr 275 ${TEMP} 500.0 928347
fix                 3 all temp/csvr 275 275 500.0 928347
fix                 4 all press/berendsen iso ${PRES} ${PRES} 1000.0 modulus 20000
fix                 4 all press/berendsen iso -1000 ${PRES} 1000.0 modulus 20000
fix                 4 all press/berendsen iso -1000 -1000 1000.0 modulus 20000

# Run 0.5 ns equilibration
#
dump		    1 all custom 1000 eq.${NAME}.dump id type x y z vx vy vz
dump		    1 all custom 1000 eq.ice_275K_1000atm_mW.dump id type x y z vx vy vz
run                 100000
Neighbor list info ...
  update every 1 steps, delay 0 steps, check yes
  max neighbors/atom: 2000, page size: 100000
  master list distance cutoff = 6.3065
  ghost atom cutoff = 6.3065
  binsize = 3.15325, bins = 17 17 17
  1 neighbor lists, perpetual/occasional/extra = 1 0 0
  (1) pair sw, perpetual
      attributes: full, newton on
      pair build: full/bin/atomonly
      stencil: full/bin/3d
      bin: standard
Per MPI rank memory allocation (min/avg/max) = 4.800 | 4.800 | 4.801 Mbytes
Step Temp Press Volume TotEng KinEng PotEng c_1[4] 
       0          275   -4570.5576    131927.58   -46913.033    3356.7647   -50269.797            0 
     100    215.54154   -1494.2546    126688.22   -45843.941      2630.99   -48474.931   0.21301344 
     200    211.21705   -989.62572    126250.81   -45055.186    2578.2034   -47633.389   0.27125356 
     300    224.34986   -983.36421    126385.67   -44525.871     2738.508   -47264.379   0.28047291 
     400    245.84999   -1057.8529    126608.68   -44213.129    3000.9476   -47214.076   0.26672297 
     500    263.25939   -945.55052    126743.86   -43955.438     3213.454   -47168.892   0.26566902 
     600    270.45007    -948.1103    126834.03   -43694.589    3301.2264   -46995.815   0.27910872 
     700    268.22821   -1001.7089    126870.56   -43630.106    3274.1054   -46904.212   0.25935066 
     800    274.03511   -974.42593     126921.2   -43550.732    3344.9869   -46895.719   0.28540424 
     900    277.15718   -975.89045    126949.17   -43534.438    3383.0962   -46917.534   0.25642997 
    1000    270.94027   -1031.3287    126931.91   -43609.707      3307.21   -46916.917   0.25435405 
    1100    268.82929   -1037.8308    126913.93   -43546.603    3281.4425   -46828.046   0.29879337 
    1200    276.70027   -984.90564    126927.29   -43524.222    3377.5189   -46901.741   0.26836217 
    1300    277.04575   -1017.2862    126985.85   -43458.251     3381.736   -46839.987   0.25662601 
    1400    273.03804   -1003.5052       126971   -43527.196    3332.8162   -46860.012   0.28299118 
    1500    271.74651   -1022.6493    126925.91   -43577.548    3317.0513     -46894.6   0.27266734 
    1600    270.87216   -1037.5154    126968.26   -43544.351    3306.3785   -46850.729   0.26928146 
    1700    277.48256   -1032.8147    126983.24   -43553.159    3387.0678   -46940.227   0.27457236 
    1800    277.07281   -973.73342     126998.9   -43518.717    3382.0663   -46900.783   0.25153407 
    1900     279.5213   -956.91697    126988.04   -43445.953    3411.9537   -46857.907   0.25542993 
    2000    282.86051   -1013.6643    127039.12   -43409.823    3452.7134   -46862.536   0.26590184 
    2100     278.7307   -994.29081     126995.5   -43548.726    3402.3032    -46951.03   0.26031963 
    2200    277.69121   -988.07103    126978.82   -43495.845    3389.6148   -46885.459   0.25745774 
    2300    277.13699   -989.21794    127018.85   -43456.153    3382.8497   -46839.003   0.28105616 
    2400    275.57483    -1004.989    126998.47    -43482.22    3363.7813   -46846.001   0.27427891 
    2500    284.01597    -981.7684    126994.83    -43503.46    3466.8175   -46970.277   0.24438493 
    2600    275.18561   -1036.7107    126967.35   -43535.317    3359.0303   -46894.347   0.27736789 
    2700    273.32019   -964.78565    126963.45   -43532.529    3336.2603    -46868.79   0.26793316 
    2800    277.79502   -975.03639    126997.55   -43440.327    3390.8819   -46831.208   0.25674664 
    2900    279.65321   -1012.6622    127023.38   -43447.182    3413.5638   -46860.746   0.28025379 
    3000    276.05071   -1034.6082    127003.78   -43495.005    3369.5901   -46864.596   0.26711195 
    3100    274.49893   -1025.7697    126999.71   -43472.466    3350.6484   -46823.114   0.25711153 
    3200    275.53783   -1010.2143    126954.93   -43557.134    3363.3297   -46920.464   0.27656848 
    3300    273.19243   -1001.0397    126883.75   -43641.183    3334.7007   -46975.884   0.26594794 
    3400    276.67672    -989.0532    126871.08    -43572.51    3377.2314   -46949.742   0.25837891 
    3500    272.21706   -992.05667    126894.85   -43532.472    3322.7949   -46855.267   0.29165903 
    3600    278.68261   -992.34143    126916.54   -43546.656    3401.7162   -46948.372   0.26604768 
    3700    276.72475   -1015.5575    126910.79   -43502.336    3377.8177   -46880.154   0.25914643 
    3800    276.60006   -1002.1378    126926.11   -43487.349    3376.2957   -46863.644   0.27431376 
    3900    274.41883   -1002.7011     126904.9   -43492.467    3349.6708   -46842.138   0.27577151 
    4000    275.54922    -994.6493    126889.65    -43525.86    3363.4687   -46889.329   0.26364014 
    4100    275.29218    -1037.741     126907.8   -43556.918    3360.3312   -46917.249   0.27926493 
    4200    274.71018   -946.19912    126894.96   -43504.558    3353.2271   -46857.785   0.27601964 
    4300     269.0935    -1029.407    126890.25   -43638.897    3284.6675   -46923.565   0.25500192 
    4400    274.03905   -973.75373    126879.71   -43527.037    3345.0349   -46872.072    0.2839633 
    4500    271.91679   -1021.8562    126906.83   -43583.805    3319.1298   -46902.935   0.27277188 
    4600    268.77962   -1003.7618    126879.36   -43614.787    3280.8362   -46895.623   0.24982042 
    4700    277.83929   -994.90313    126899.92   -43525.138    3391.4223    -46916.56   0.28339805 
    4800    275.49915   -1006.6428     126934.9   -43440.299    3362.8576   -46803.157   0.27290734 
    4900    279.10114   -972.07973    126934.95   -43400.965    3406.8249    -46807.79   0.26501482 
    5000     270.5618   -1014.7185    126922.65    -43519.28    3302.5901    -46821.87   0.28556446 
    5100    281.12988   -966.83455    126928.88   -43446.198    3431.5885   -46877.787   0.26062751 
    5200    271.87814   -1007.6757     126914.8   -43512.667     3318.658   -46831.325   0.26920948 
    5300    272.53304    -990.7502    126883.92   -43612.449     3326.652   -46939.101   0.27476081 
    5400    268.29953   -983.66542    126890.44   -43583.174     3274.976    -46858.15   0.26739683 
    5500    274.76164    -965.5791    126890.97   -43553.652    3353.8552   -46907.507   0.25168581 
    5600    269.67015   -937.15067    126878.57     -43584.9    3291.7064   -46876.607   0.27277905 
    5700    271.12743   -1049.1079    126894.14   -43581.686    3309.4945   -46891.181   0.27765364 
    5800    277.03871   -993.14861    126897.86   -43528.885    3381.6501   -46910.535   0.24975355 
    5900    270.13758   -1012.5152    126875.76    -43600.95     3297.412   -46898.362   0.28877762 
    6000     272.7664   -1021.1929    126873.77   -43575.779    3329.5004   -46905.279   0.26958573 
    6100    269.31914   -1030.9758    126895.39   -43649.011    3287.4218   -46936.433   0.25721912 
    6200    268.89181   -1006.2468    126898.41    -43628.49    3282.2056   -46910.695   0.28558076 
    6300     275.3857   -965.54759    126949.81   -43522.749    3361.4727   -46884.221   0.25835609 
    6400    273.25089   -1002.3134    126915.05   -43568.379    3335.4143   -46903.794   0.26362951 
    6500     273.3742   -1008.2957    126880.12   -43579.392    3336.9195   -46916.312   0.28610665 
    6600    274.17444   -986.42092    126877.58   -43584.697    3346.6875   -46931.385   0.27268928 
    6700    269.52425   -988.22268    126875.48    -43632.77    3289.9254   -46922.696   0.26167175 
    6800    271.09621   -974.62209    126883.95   -43594.328    3309.1135   -46903.442   0.27834382 
    6900    273.77521   -970.52958    126901.98   -43519.385    3341.8144   -46861.199   0.27060313 
    7000    274.58158   -980.80809    126925.03   -43527.163    3351.6573   -46878.821   0.26125851 
    7100    272.63139   -993.19424    126915.55   -43532.564    3327.8525   -46860.417   0.27535189 
    7200    266.67636     -996.154    126886.13   -43636.072    3255.1629   -46891.235   0.27235779 
    7300    267.99586   -1020.3861    126830.79   -43679.304    3271.2692   -46950.573   0.26474458 
    7400     275.6836   -964.41698    126837.49   -43573.588     3365.109   -46938.697   0.27920964 
    7500    277.76477   -977.68594    126877.52   -43512.159    3390.5127   -46902.671   0.27092024 
    7600    273.49316   -968.09559    126899.24   -43486.039    3338.3716   -46824.411   0.25413505 
    7700    269.74637    -1021.858    126902.75   -43577.019    3292.6367   -46869.656   0.28675427 
    7800     272.4538   -981.95905    126881.43   -43629.724    3325.6847   -46955.408   0.25766076 
    7900    276.68148   -1016.9625    126888.27   -43582.285    3377.2896   -46959.575   0.25722321 
    8000    279.79554   -981.33025    126900.42   -43489.153    3415.3011   -46904.454   0.27846832 
    8100    273.67199   -1017.9407    126900.38   -43452.484    3340.5545   -46793.038   0.27041088 
    8200    272.92197   -1001.7724    126884.24   -43469.263    3331.3995   -46800.662   0.27225226 
    8300    274.71479   -960.26755    126913.65   -43437.492    3353.2833   -46790.775   0.27732037 
    8400    278.12288   -1027.4129    126935.09   -43415.899    3394.8838   -46810.783   0.27281948 
    8500    276.80608   -1002.3614    126929.94   -43495.542    3378.8104   -46874.353   0.25219017 
    8600    276.26686    -1032.586    126922.29   -43512.491    3372.2285    -46884.72   0.28181223 
    8700    274.88867   -1016.6286    126906.43   -43483.779    3355.4058   -46839.184   0.26629401 
    8800    276.13867   -967.58666    126894.99   -43515.553    3370.6638   -46886.217    0.2516941 
    8900    271.28655   -1017.2936    126869.53   -43579.324    3311.4368   -46890.761   0.28569285 
    9000    273.70991   -999.06876    126872.46   -43514.838    3341.0174   -46855.856   0.26990745 
    9100    276.37207   -989.84313    126909.82   -43564.304    3373.5128   -46937.817   0.25928317 
    9200    276.53043   -1008.2574    126953.64   -43466.054    3375.4458     -46841.5   0.26689252 
    9300    272.42319   -978.60801    126914.21   -43599.497    3325.3111   -46924.808   0.26766485 
    9400    272.07205   -996.88601    126921.94   -43567.279     3321.025   -46888.304   0.25399721 
    9500    273.18716   -998.07469    126917.07   -43609.407    3334.6364   -46944.044   0.27579813 
    9600    268.04463   -999.42605    126934.67   -43604.429    3271.8646   -46876.293   0.25927324 
    9700    274.34755   -953.08937    126948.55   -43492.929    3348.8007    -46841.73   0.24899247 
    9800    277.35675   -1012.1733    126967.47   -43442.297    3385.5322   -46827.829   0.29071053 
    9900    282.79761   -985.68569    126982.34   -43479.138    3451.9456   -46931.083   0.25292967 
   10000    278.18345   -1031.6511    126942.05   -43523.203    3395.6233   -46918.826   0.26082627 
   10100    278.49982   -986.83284    126944.11   -43477.529     3399.485   -46877.014   0.27532867 
   10200    275.71898   -994.00152    126988.55   -43456.207    3365.5409   -46821.748    0.2705238 
   10300    278.14724    -1015.351    126993.97   -43451.783    3395.1813   -46846.964   0.25757596 
   10400    278.81168   -987.57339    126969.68   -43443.315    3403.2917   -46846.607   0.27505282 
   10500    273.78983   -1007.9788       126908   -43489.568    3341.9929   -46831.561   0.27520158 
   10600    275.41646   -976.53075    126931.37   -43516.039    3361.8482   -46877.888   0.25190704 
   10700    274.28482   -982.84772    126892.55   -43549.401    3348.0349   -46897.436    0.2916003 
   10800      271.095   -1015.6716    126892.68   -43663.481    3309.0987   -46972.579   0.26306671 
   10900    268.52919   -1011.8269    126899.38   -43645.788    3277.7793   -46923.568   0.25186209 
   11000    270.37344   -1006.5866    126880.51   -43655.808     3300.291   -46956.099   0.27730042 
   11100    274.97057    -1034.842    126941.45   -43582.949    3356.4055   -46939.354   0.26455796 
   11200    269.51816   -999.99816    126917.37   -43671.795    3289.8511   -46961.646   0.24959447 
   11300    268.44819    -982.7576    126897.72   -43596.705    3276.7906   -46873.495   0.27870877 
   11400    271.39627   -1021.0712    126909.51   -43572.991     3312.776   -46885.767   0.26612315 
   11500    278.86243   -924.47577    126936.31   -43479.405    3403.9111   -46883.316   0.25503706 
   11600    280.48838   -1015.7845    126970.24   -43485.155    3423.7582   -46908.913    0.2746735 
   11700       283.89   -985.79621    127014.87   -43360.898    3465.2798   -46826.178    0.2577507 
   11800    277.25542   -1016.3991     126981.6   -43438.483    3384.2953   -46822.778   0.26336402 
   11900    278.55166   -1008.6866    126964.15    -43483.55    3400.1178   -46883.668    0.2703012 
   12000     278.7904     -1018.03    126965.84   -43434.643    3403.0319   -46837.675   0.27063303 
   12100    278.33778   -985.50719    126943.51   -43505.002    3397.5071   -46902.509   0.25777804 
   12200    280.13534   -992.38254    126952.53   -43500.612    3419.4489   -46920.061   0.26990761 
   12300    277.60614   -968.22852    126915.43   -43550.044    3388.5763    -46938.62   0.27060294 
   12400     273.0826   -1007.4957    126929.21   -43519.376    3333.3601   -46852.736   0.25638077 
   12500    276.65068   -967.43028    126917.89   -43461.162    3376.9136   -46838.076   0.28561947 
   12600    274.03673   -1023.3843    126951.68   -43461.835    3345.0066   -46806.842   0.26569557 
   12700    276.24371    -1009.399    126933.53   -43488.033     3371.946   -46859.979   0.26398888 
   12800    276.01576   -989.79928    126901.52   -43515.003    3369.1635   -46884.167   0.28625076 
   12900    274.52549   -968.99569    126879.89   -43555.937    3350.9727    -46906.91   0.26502593 
   13000    273.51545   -980.77942    126873.79   -43545.271    3338.6437   -46883.914   0.26454794 
   13100     271.4685   -984.12722    126873.72   -43576.422    3313.6578    -46890.08   0.28450421 
   13200    272.43217   -1035.0004     126854.3   -43614.958    3325.4207   -46940.379    0.2685409 
   13300    272.09057   -1002.2541    126874.49   -43676.544     3321.251   -46997.795   0.25895166 
   13400    265.46553   -1038.8641     126851.5   -43719.306     3240.383   -46959.689   0.28243431 
   13500    271.14969   -976.41871    126882.89   -43605.407    3309.7662   -46915.173   0.26604437 
   13600    271.49311   -982.39778    126878.62    -43576.97    3313.9581   -46890.928   0.27125247 
   13700    274.30433   -971.40825    126888.77   -43589.637    3348.2731    -46937.91   0.27606658 
   13800    273.95569   -1004.0317     126886.1   -43550.769    3344.0175   -46894.787   0.27039796 
   13900    276.31021   -949.18546     126901.7   -43508.802    3372.7577    -46881.56   0.26245683 
   14000     281.9129   -1016.7707    126934.82   -43426.713    3441.1465    -46867.86   0.28075297 
   14100    280.37151   -991.32278    126912.98   -43505.913    3422.3317   -46928.245   0.26893529 
   14200    280.57191   -974.73683     126919.2   -43503.241    3424.7777   -46928.018   0.26124045 
   14300    277.57544   -988.52222    126883.52   -43536.363    3388.2016   -46924.565    0.2870834 
   14400    274.27565   -1048.5301    126882.09   -43578.501     3347.923   -46926.424   0.26422423 
   14500    275.29555   -994.92292    126890.33   -43587.784    3360.3723   -46948.156   0.26558434 
   14600     275.8321    -978.7758    126880.97   -43580.423    3366.9216   -46947.345   0.27095347 
   14700    272.95087   -1022.5079    126892.11   -43538.019    3331.7522   -46869.771   0.26221973 
   14800    273.38293   -997.24714    126911.25   -43505.306     3337.026   -46842.332   0.27549746 
   14900    277.43605   -985.84283    126915.59   -43485.952    3386.5001   -46872.452   0.27930705 
   15000    272.70317   -994.00075    126902.61   -43549.753    3328.7286   -46878.482   0.26180886 
   15100    272.83854    -1005.618    126892.75   -43574.442     3330.381   -46904.823   0.27367101 
   15200    270.39792   -1023.6024    126879.62   -43532.604    3300.5898   -46833.194   0.28148287 
   15300    272.97553   -999.18543    126891.92   -43580.506    3332.0532   -46912.559   0.26703081 
   15400    269.29954   -990.26117    126906.01   -43615.221    3287.1825   -46902.403   0.26707464 
   15500    274.39762   -990.38666    126930.95   -43544.383    3349.4118   -46893.795   0.27090993 
   15600    275.96142   -978.15201    126944.21   -43428.721    3368.5002   -46797.221   0.27311855 
   15700     279.2955   -1008.5968    127001.79   -43418.626    3409.1974   -46827.823    0.2632469 
   15800    283.68305   -996.34731    126990.85    -43436.09    3462.7537   -46898.844   0.27891471 
   15900    275.86933   -982.13834    126953.32   -43431.694    3367.3761    -46799.07   0.26697715 
   16000    277.36861   -1009.5028    126957.27     -43486.7     3385.677   -46872.377   0.26095673 
   16100    267.84971   -990.24331    126919.65   -43549.391    3269.4853   -46818.876   0.28278005 
   16200    274.60012   -1022.4802    126928.91   -43521.491    3351.8837   -46873.374   0.26162066 
   16300    270.60448   -1012.2318    126901.85   -43530.409    3303.1112   -46833.521   0.27665791 
   16400    277.50964   -984.96464    126893.38   -43548.657    3387.3984   -46936.055   0.27273765 
   16500    275.21057   -995.46248    126918.02   -43468.608     3359.335   -46827.943   0.26898318 
   16600    280.48608   -1023.4496    126947.63   -43444.013    3423.7301   -46867.743   0.27240309 
   16700    275.96446   -1019.0674    126934.43   -43479.138    3368.5373   -46847.675   0.27656462 
   16800     279.6574    -968.4219    126937.27   -43515.469    3413.6149   -46929.084   0.26353477 
   16900     274.7536   -991.27118    126923.75   -43530.115     3353.757   -46883.872   0.26991755 
   17000    270.58464   -1000.3669    126898.04   -43584.977     3302.869   -46887.846   0.26905306 
   17100    272.63926   -993.69181    126925.11   -43524.485    3327.9485   -46852.433   0.26532636 
   17200    272.80319   -985.89665    126890.16   -43580.559    3329.9495   -46910.509   0.26083797 
   17300     271.3884   -1014.0176    126888.56   -43651.348      3312.68   -46964.028   0.26858596 
   17400    274.13138   -1038.1388     126866.8   -43673.781    3346.1619   -47019.943   0.26630764 
   17500    274.25436   -990.47895     126887.9   -43556.043    3347.6632   -46903.706   0.25840267 
   17600    275.14529   -1005.6164    126913.45   -43574.643    3358.5381   -46933.181   0.27996472 
   17700    272.60924   -1003.0664    126916.36    -43599.13    3327.5821   -46926.712   0.25670413 
   17800    271.80675   -1005.0378    126921.26   -43600.985    3317.7866   -46918.772   0.26299938 
   17900    277.80337   -984.65234    126919.01   -43527.137    3390.9839    -46918.12   0.27502964 
   18000    278.73296   -988.62447    126935.98   -43486.198    3402.3308   -46888.529   0.25377992 
   18100    277.17459   -973.73738    126965.42   -43454.648    3383.3087   -46837.957   0.26986128 
   18200    274.90719   -1033.8614    126933.06    -43548.87    3355.6319   -46904.502    0.2687625 
   18300    273.49463   -1002.9487    126922.96   -43490.531    3338.3895    -46828.92   0.26594769 
   18400    270.89404   -1000.8787    126893.57   -43590.624    3306.6456    -46897.27   0.26483473 
   18500    271.85468   -989.70645    126895.14   -43557.667    3318.3716   -46876.038   0.27767741 
   18600    274.77147   -995.71434    126898.26   -43484.345    3353.9752   -46838.321   0.26768339 
   18700    276.32534   -1013.0942    126913.71   -43512.038    3372.9423   -46884.981   0.26568575 
   18800     277.5478    -985.3724    126898.66   -43541.285    3387.8643   -46929.149   0.27079377 
   18900    273.38159   -1007.2441     126916.4   -43507.236    3337.0097   -46844.246   0.27043462 
   19000    272.11188   -988.46807    126943.12   -43484.937    3321.5111   -46806.448   0.26970946 
   19100    277.96474   -981.11455    126953.47    -43454.49    3392.9536   -46847.444   0.26729404 
   19200    274.36265   -1009.0906    126931.88   -43507.741     3348.985   -46856.726   0.27062864 
   19300     280.1291   -1002.3682    126973.69   -43374.379    3419.3726   -46793.752   0.26009752 
   19400    276.82301   -1031.6802    126974.81   -43454.266    3379.0172   -46833.283   0.27753945 
   19500    278.20626   -982.57986    126972.62   -43424.446    3395.9016   -46820.348   0.25812072 
   19600    279.25537   -989.05041    126971.06    -43451.45    3408.7076   -46860.158   0.26291461 
   19700    275.68502    -1002.677     126978.7   -43458.458    3365.1264   -46823.584   0.27742084 
   19800    273.33179   -1004.9969    126957.03   -43456.465    3336.4018   -46792.867   0.25772173 
   19900    280.76653   -1010.8865    126931.95   -43477.372    3427.1534   -46904.525    0.2697475 
   20000     269.9142    -970.5353    126944.45   -43507.238    3294.6853   -46801.923   0.27220024 
   20100    275.53501   -1004.9714    126925.14   -43548.122    3363.2953   -46911.418     0.262519 
   20200    273.75653   -972.55994    126909.69   -43568.111    3341.5864   -46909.698   0.26489618 
   20300    275.47998   -1016.2973    126918.23   -43504.148    3362.6236   -46866.772   0.27324169 
   20400    275.18371   -1065.8146    126929.64   -43518.558    3359.0072   -46877.565   0.27203515 
   20500    274.44413   -981.76458    126906.49   -43568.717    3349.9796   -46918.696   0.26158767 
   20600    272.11543    -1015.541    126894.98   -43596.156    3321.5544    -46917.71   0.27600346 
   20700    273.13713   -978.40689    126890.66    -43557.36    3334.0257   -46891.386   0.26796211 
   20800    269.56986   -973.33262    126917.02   -43480.387    3290.4822   -46770.869   0.26802699 
   20900    276.96548   -1007.1526    126937.49   -43495.839    3380.7562   -46876.596   0.27489761 
   21000    279.13564   -971.09719    126920.67   -43534.144     3407.246    -46941.39    0.2682497 
   21100    275.22126   -1013.7835    126964.25    -43495.12    3359.4655   -46854.586   0.25372219 
   21200    275.88543   -988.21179     126943.7    -43484.71    3367.5726   -46852.282   0.27747369 
   21300    281.34802   -988.56975    126961.84    -43448.58    3434.2512   -46882.831   0.26128397 
   21400    279.93658    -1014.747    126938.14   -43493.951    3417.0227   -46910.973   0.26246444 
   21500    276.71362   -970.39546    126966.39   -43440.349    3377.6819    -46818.03   0.27779508 
   21600    277.07459   -993.22831    126997.51   -43426.284     3382.088   -46808.372   0.25431493 
   21700    273.30213   -1000.0771    126960.46   -43521.985    3336.0398   -46858.025   0.26849571 
   21800    276.82255   -943.41142    126934.48   -43535.683    3379.0115   -46914.695   0.26486336 
   21900    274.14511   -1024.1422    126933.85   -43542.985    3346.3296   -46889.315   0.26436033 
   22000    274.50783    -986.1111    126939.58   -43601.104     3350.757   -46951.861   0.25077927 
   22100    272.35428   -980.90394    126941.67    -43577.09    3324.4699   -46901.559   0.26866712 
   22200    272.43004   -1027.0263     126904.9   -43697.758    3325.3947   -47023.152   0.26337591 
   22300    274.77825   -948.27947       126921   -43610.008     3354.058   -46964.066   0.24761765 
   22400    280.07034   -983.65378    126978.47   -43511.519    3418.6554   -46930.174   0.27247016 
   22500    277.46852   -987.84673    126970.14   -43520.595    3386.8965   -46907.491   0.25977533 
   22600    276.72767   -982.61803    126967.71   -43534.918    3377.8534   -46912.771   0.25548716 
   22700    271.34823   -975.63543     126950.8    -43591.31    3312.1897     -46903.5   0.27483804 
   22800    272.14798   -992.59234    126941.83   -43519.149    3321.9518   -46841.101   0.26461928 
   22900    279.18354   -1016.0484    126967.19   -43551.507    3407.8307   -46959.338    0.2549522 
   23000     277.6034    -1022.623    126920.79   -43611.678    3388.5429   -47000.221   0.27356288 
   23100    274.02992   -972.91383    126921.36   -43525.826    3344.9235    -46870.75   0.26220531 
   23200    277.91889   -964.55985    126927.06   -43519.122    3392.3939   -46911.515   0.25809429 
   23300    274.13277   -979.09294    126937.36   -43516.016    3346.1789   -46862.195   0.28233358 
   23400    272.65249   -1031.2404    126934.17   -43496.701    3328.1101   -46824.811    0.2664249 
   23500    277.12311   -1017.3626    126914.37    -43480.61    3382.6802    -46863.29   0.27073565 
   23600    278.76051   -1059.5163    126942.99   -43426.354    3402.6671   -46829.021   0.27652087 
   23700    281.42534    -993.2008    126920.59   -43451.547    3435.1951   -46886.742   0.26480875 
   23800    275.30818   -1015.9197     126931.5   -43449.736    3360.5265   -46810.263   0.26491082 
   23900    268.62108    -1017.101    126886.84   -43545.169    3278.9009    -46824.07   0.27790259 
   24000    276.59179   -992.47103    126889.47   -43493.013    3376.1947   -46869.207   0.27485349 
   24100    275.83638   -980.15954    126919.46   -43462.871    3366.9739   -46829.845   0.26188767 
   24200    271.22274   -1025.2076    126906.37   -43517.866     3310.658   -46828.524   0.28267354 
   24300    274.04306   -1027.5705    126888.96   -43564.121    3345.0839   -46909.205   0.27118045 
   24400    272.62287   -994.95695    126870.19   -43608.129    3327.7484   -46935.878   0.25732303 
   24500     278.4606   -941.10201    126865.54   -43566.364    3399.0062   -46965.371   0.27409158 
   24600    266.42143   -1030.8304    126833.54   -43605.341    3252.0511   -46857.392   0.27961052 
   24700    270.10811   -997.34239    126853.68   -43614.371    3297.0522   -46911.423   0.25877486 
   24800    271.74945   -1000.0042     126869.9   -43582.638    3317.0871   -46899.725    0.2761855 
   24900    268.69294   -1003.9753    126875.78   -43599.059    3279.7781   -46878.837   0.27092741 
   25000    273.07898   -1017.6238    126869.37   -43561.992     3333.316   -46895.308   0.26381112 
   25100    271.57469   -1002.1837    126872.91   -43605.674    3314.9539   -46920.628    0.2777526 
   25200    268.15297   -1010.2751    126847.98   -43716.693     3273.187    -46989.88   0.26396568 
   25300    272.72472   -987.36573    126818.69   -43662.474    3328.9917   -46991.465   0.26009892 
   25400    269.41041   -1005.4078    126843.99   -43604.131    3288.5358   -46892.667   0.27378381 
   25500    271.13937   -957.00419    126880.48   -43559.225    3309.6403   -46868.865   0.27142855 
   25600    280.96706   -962.54937    126930.18   -43424.498    3429.6012   -46854.099   0.26377536 
   25700    280.01616   -999.77642    126940.83   -43537.991    3417.9941   -46955.986   0.25891091 
   25800    280.61714   -1026.5788    126936.92   -43430.457    3425.3298   -46855.787   0.27155803 
   25900    282.64892   -993.79118    126946.49   -43430.272    3450.1307   -46880.403   0.25357846 
   26000    276.40702   -1012.7804    126937.79   -43462.261    3373.9394     -46836.2   0.27234736 
   26100     277.5243   -975.76797    126937.63   -43478.993    3387.5773    -46866.57   0.26617076 
   26200    279.53463   -996.28525    126949.57   -43518.697    3412.1163   -46930.813   0.25320454 
   26300    274.73542   -1027.8648    126915.93   -43571.624    3353.5352    -46925.16   0.27378266 
   26400    275.09755   -1009.6526    126907.57    -43594.86    3357.9554   -46952.816   0.26122295 
   26500    275.62232    -991.5876    126912.41   -43501.149    3364.3611    -46865.51   0.26038091 
   26600    277.00071   -1006.4615    126943.28   -43466.394    3381.1862    -46847.58   0.27014226 
   26700     280.9449   -964.83632    126965.08   -43430.119    3429.3307    -46859.45   0.26198318 
   26800    275.42079   -1024.1813     126954.8   -43491.248    3361.9011   -46853.149   0.26318102 
   26900    278.52747   -996.87992    126941.69   -43460.784    3399.8225   -46860.606   0.26380581 
   27000    277.03459   -1023.2996     126937.3   -43457.831    3381.5998   -46839.431   0.26706827 
   27100    278.66519   -1009.2764    126934.08   -43445.112    3401.5036   -46846.616   0.26538106 
   27200    274.35459   -979.83749    126931.63   -43480.308    3348.8866   -46829.194   0.26286161 
   27300    278.06228   -1004.0411    126943.71   -43385.592    3394.1442   -46779.736   0.27825986 
   27400    279.70193   -980.99862    126947.63   -43414.369    3414.1584   -46828.527   0.26225612 
   27500    274.30963   -1025.9579    126942.77   -43525.324    3348.3377   -46873.662    0.2666967 
   27600    270.41718   -1002.3663    126903.77   -43626.296     3300.825   -46927.121   0.26568393 
   27700    272.74726   -1024.4497    126898.37   -43543.839    3329.2668   -46873.106    0.2580332 
   27800    276.31348   -1008.4639    126933.66   -43464.744    3372.7977   -46837.542    0.2676915 
   27900    270.80844   -1052.5995    126935.41   -43550.542    3305.6008   -46856.143   0.26910102 
   28000    272.33964   -982.71999    126920.86   -43604.456    3324.2913   -46928.748   0.25947251 
   28100    268.66094    -1013.762    126899.27   -43585.999    3279.3875   -46865.386   0.27152918 
   28200    276.71617   -983.75421    126917.52     -43569.2     3377.713   -46946.913   0.27103533 
   28300    270.05963   -990.21973    126920.11   -43558.024    3296.4605   -46854.484   0.26445208 
   28400    273.48389   -1004.9886     126923.2   -43547.335    3338.2584   -46885.593   0.26887255 
   28500    273.54372   -1004.8286    126921.79   -43559.553    3338.9888   -46898.542   0.26976819 
   28600    275.39703   -1004.6993    126909.55   -43578.154    3361.6111   -46939.766   0.25806173 
   28700     273.7076   -1026.9086    126931.21   -43569.828    3340.9892   -46910.817   0.26663542 
   28800    271.37995   -989.50555    126934.68   -43589.848    3312.5769   -46902.425   0.27121163 
   28900    270.65736   -1000.8334    126922.43   -43560.756    3303.7567   -46864.513   0.26518008 
   29000    275.14252   -999.30078    126898.49   -43529.595    3358.5044   -46888.099   0.26142883 
   29100    275.26222   -1007.0535    126907.45   -43498.527    3359.9655   -46858.492   0.27930945 
   29200    282.71255   -953.61155    126972.05   -43415.776    3450.9073   -46866.683   0.25297489 
   29300    275.46956   -1026.7035    127006.05    -43441.07    3362.4963   -46803.566   0.25905432 
   29400    272.33776   -1000.1831    126968.71   -43485.331    3324.2683   -46809.599   0.27452126 
   29500    275.12502   -994.70687    126967.38   -43471.003    3358.2907   -46829.293   0.25429509 
   29600    279.49398   -1012.8107    126984.23   -43467.677    3411.6201   -46879.297   0.26570551 
   29700    275.57555   -976.33053    126976.13   -43523.093    3363.7902   -46886.883   0.26323112 
   29800    267.33133   -1008.4704    126928.26   -43623.973    3263.1578   -46887.131   0.25339173 
   29900    274.04645   -997.91529    126929.65    -43570.03    3345.1252   -46915.155   0.26269108 
   30000    273.66708   -1017.9515    126914.28   -43628.333    3340.4946   -46968.828   0.26267543 
   30100    276.83495   -991.87627    126939.34   -43528.895    3379.1629   -46908.058    0.2549421 
   30200    273.34033   -1016.5033     126975.5   -43577.223    3336.5061   -46913.729   0.25576615 
   30300     274.8103   -1003.1315     126985.2   -43575.589    3354.4491   -46930.038   0.26025759 
   30400    270.54638   -1012.6523    126972.99     -43542.5     3302.402   -46844.902   0.26062413 
   30500    273.32924     -996.775    126933.64   -43650.933    3336.3708   -46987.303   0.25211001 
   30600    275.24026     -971.228    126924.05   -43597.037    3359.6974   -46956.734   0.26429634 
   30700    269.44373   -995.69188    126934.93   -43624.201    3288.9426   -46913.143   0.25434694 
   30800    272.15272    -984.0475    126924.46   -43574.253    3322.0096   -46896.263   0.25442659 
   30900    271.18352   -1011.7394    126963.71   -43511.702    3310.1792   -46821.882    0.2762592 
   31000    281.50327   -971.60626    126952.22   -43535.121    3436.1463   -46971.267   0.24929555 
   31100    274.01155   -1010.6474    126963.69    -43546.55    3344.6993   -46891.249   0.25709172 
   31200    277.06507   -981.70148    126968.33   -43537.695    3381.9718   -46919.667   0.26001028 
   31300    281.01804   -1019.6772    126976.36   -43444.487    3430.2235   -46874.711   0.25512611 
   31400     274.0941   -989.51399    126959.88   -43515.726    3345.7069   -46861.432   0.26398294 
   31500    278.43021   -971.67559    126957.64   -43477.657    3398.6353   -46876.292    0.2635147 
   31600    271.89456   -1012.0803    126951.16   -43504.638    3318.8584   -46823.496   0.25980717 
   31700    278.71992   -1028.8262    126956.07   -43507.312    3402.1717   -46909.484   0.26254904 
   31800    276.90519   -991.12978    126969.72   -43485.507    3380.0203   -46865.527   0.26449168 
   31900    275.20064   -1019.1307     126954.2   -43545.371    3359.2139   -46904.585   0.25695324 
   32000    276.62434   -994.60887    126937.71   -43526.281    3376.5921   -46902.873   0.25780724 
   32100    273.60168   -1010.0825    126943.76   -43557.758    3339.6962   -46897.454   0.27101013 
   32200    268.52281   -1016.5464    126882.79   -43650.449    3277.7014   -46928.151   0.26412652 
   32300     269.5274   -1042.5527    126858.68   -43608.355    3289.9639   -46898.319   0.27143484 
   32400    268.93589   -994.65198     126845.3   -43625.094    3282.7436   -46907.838   0.27794944 
   32500    275.38675   -991.70558    126894.84   -43532.041    3361.4855   -46893.527   0.25936487 
   32600    277.99618   -974.20865    126910.97   -43481.523    3393.3373   -46874.861    0.2610662 
   32700    274.22765   -1011.1266    126908.89    -43572.06    3347.3371   -46919.397   0.27430224 
   32800    277.14661   -982.14487    126934.37   -43462.959    3382.9672   -46845.927    0.2601354 
   32900    275.26629   -1013.8908    126907.78   -43508.515    3360.0152    -46868.53   0.26795958 
   33000    275.22872   -985.94373    126912.37   -43496.832    3359.5565   -46856.388   0.27362245 
   33100    274.18249   -1001.6796    126916.31    -43510.11    3346.7859   -46856.896   0.26091196 
   33200    272.93574   -973.31462    126952.71   -43526.371    3331.5675   -46857.938   0.26559796 
   33300    268.25752   -1017.7467    126957.36   -43511.757    3274.4632    -46786.22   0.26874021 
   33400    275.95241   -969.54868     126938.9   -43546.405    3368.3903   -46914.796   0.25485444 
   33500    270.20393   -998.93913    126910.39   -43593.861    3298.2219   -46892.083   0.26068799 
   33600    276.77231   -968.13129    126894.92   -43573.201    3378.3983     -46951.6   0.26930218 
   33700    273.08398    -1007.294    126890.32   -43536.124     3333.377   -46869.501   0.26463975 
   33800    280.90453   -1004.5394    126972.31   -43404.907    3428.8379   -46833.745   0.26479093 
   33900    279.88218   -953.33181    126979.45   -43381.825    3416.3586   -46798.183   0.27536823 
   34000    273.43186   -1023.6393     126902.3   -43526.822    3337.6233   -46864.445   0.26124625 
   34100    272.99973   -1026.7515    126892.33   -43522.245    3332.3485   -46854.594   0.26910442 
   34200    272.85586   -1003.3581     126886.4   -43560.041    3330.5925   -46890.634   0.27298298 
   34300    274.90817   -1039.0689    126902.09    -43610.56    3355.6438   -46966.204   0.25866124 
   34400    272.07616   -967.15347    126859.74   -43575.209    3321.0751   -46896.284   0.26181413 
   34500    275.45433   -980.16722    126918.62   -43452.296    3362.3104   -46814.606   0.27751925 
   34600    278.39362   -962.22772    126953.29    -43414.14    3398.1886   -46812.328   0.25590391 
   34700    275.96954   -1033.4366    126910.94   -43507.057    3368.5993   -46875.656   0.26988134 
   34800    273.08839   -977.73229    126899.37   -43560.458    3333.4308   -46893.889   0.26746218 
   34900    277.88347   -1004.8452    126908.55   -43519.937    3391.9615   -46911.899   0.25928504 
   35000    273.51921   -1016.6954    126901.62   -43539.707    3338.6896   -46878.396    0.2666718 
   35100    280.41174   -999.10704    126941.95   -43509.189    3422.8227   -46932.012   0.26203389 
   35200    275.87326   -970.69931    126937.44   -43460.859    3367.4241   -46828.283    0.2591788 
   35300    272.38583   -995.15585    126942.17   -43495.685     3324.855    -46820.54   0.25845356 
   35400    274.38838   -1005.9288    126910.83   -43535.362    3349.2991   -46884.661   0.27456816 
   35500    280.47541   -1015.4866    126914.94   -43549.471    3423.5998   -46973.071   0.25122016 
   35600    275.03118   -976.71008    126902.98   -43531.777    3357.1454   -46888.923   0.25905931 
   35700    275.15663   -982.71486    126928.04   -43486.992    3358.6766   -46845.669   0.27359495 
   35800    285.51113   -971.45501    126990.89   -43364.165     3485.068   -46849.233   0.25450577 
   35900    276.47891   -1016.5113    127011.34   -43460.969     3374.817   -46835.786   0.26278322 
   36000     272.8731   -1011.9674    126940.88   -43524.331    3330.8029   -46855.134   0.27051607 
   36100    276.47021   -1016.0808    126936.82   -43565.988    3374.7107   -46940.699   0.25536849 
   36200    277.79447   -1017.1087    126897.23   -43544.881    3390.8752   -46935.756   0.26538057 
   36300    277.92615   -1003.7728    126911.73   -43549.131    3392.4825   -46941.614   0.26861541 
   36400    271.47407   -1003.9284    126895.23   -43559.775    3313.7257     -46873.5   0.26218789 
   36500    275.56035   -977.69567    126904.03   -43566.471    3363.6046   -46930.075   0.26586749 
   36600    277.39314   -957.00835    126938.65    -43529.79    3385.9764   -46915.766   0.26681406 
   36700    270.37724   -1033.6593    126929.84    -43579.94    3300.3374   -46880.277   0.25656373 
   36800    273.14314   -1020.2779    126910.42   -43636.343    3334.0991   -46970.443   0.25934954 
   36900    276.28313   -1010.3111    126925.45   -43588.885    3372.4272   -46961.313   0.26648915 
   37000     278.5374   -1010.7717    126922.25   -43573.447    3399.9437   -46973.391   0.26220694 
   37100    275.53205    -1021.654    126891.36   -43599.342    3363.2591   -46962.602   0.26137778 
   37200    272.02897   -985.44867    126869.01   -43606.387    3320.4991   -46926.886   0.27487919 
   37300    273.67666   -1013.1781    126844.97   -43611.531    3340.6115   -46952.142   0.25902841 
   37400    272.90601   -1002.3311    126853.52   -43638.445    3331.2046   -46969.649   0.26923117 
   37500     269.6838   -993.91267    126869.21   -43594.796    3291.8729   -46886.669   0.28090118 
   37600    276.06506   -990.36516     126869.9   -43622.232    3369.7653   -46991.998   0.25258836 
   37700    270.06813   -1008.2243    126840.19   -43720.879    3296.5643   -47017.443   0.27067926 
   37800    264.81869   -973.66308    126825.87   -43748.894    3232.4874   -46981.381     0.268701 
   37900    270.85976   -978.41555    126826.19    -43635.35    3306.2272   -46941.578   0.25899888 
   38000    272.92559   -943.92876    126904.32   -43554.863    3331.4437   -46886.307   0.26967038 
   38100    274.02357   -965.51397    126916.02   -43549.064     3344.846    -46893.91   0.26983149 
   38200    275.80713   -1041.6636    126936.07   -43506.035    3366.6169   -46872.652   0.26328257 
   38300    277.37736   -956.17423     126939.5   -43527.461    3385.7838   -46913.244   0.26861207 
   38400    275.51717   -1018.0082    126939.56   -43496.075    3363.0775   -46859.152    0.2762618 
   38500    275.72245   -981.05802     126885.3    -43516.76    3365.5833   -46882.344   0.25888471 
   38600    273.22948   -970.83801     126925.8   -43513.115     3335.153   -46848.268   0.26541664 
   38700    272.79191   -1009.7002    126936.15   -43489.434    3329.8118   -46819.246   0.27800998 
   38800    275.47201   -965.42263     126900.6   -43533.285    3362.5263   -46895.812   0.25556839 
   38900     272.1812   -1014.4044    126930.91    -43443.35    3322.3572   -46765.707   0.27137972 
   39000    276.48645   -1005.3251    126955.57   -43484.817    3374.9089   -46859.726   0.27964936 
   39100    271.07634    -972.0209    126918.34   -43511.495    3308.8709   -46820.366   0.25910807 
   39200    270.07121   -1026.7817    126902.81   -43622.244    3296.6019   -46918.846   0.26734745 
   39300    271.05655   -1054.6249    126853.15   -43657.505    3308.6293   -46966.134   0.27670148 
   39400    278.75219   -996.86077    126877.66    -43509.02    3402.5655   -46911.585   0.25843352 
   39500    270.72767   -1057.5213    126891.05   -43530.989    3304.6149   -46835.604   0.27549133 
   39600    271.03825   -1013.4499    126910.32   -43503.719     3308.406   -46812.125   0.28072063 
   39700    275.07954   -1035.9926    126895.73   -43512.678    3357.7356   -46870.413   0.25851664 
   39800    274.57855   -980.43337    126877.81   -43537.489    3351.6203    -46889.11   0.26649502 
   39900    271.95469   -973.72568     126887.3   -43489.029    3319.5924   -46808.622   0.28165248 
   40000    275.74852   -988.68166    126911.07   -43536.348    3365.9014   -46902.249   0.25716386 
   40100     274.1759   -1010.4634    126926.35   -43558.425    3346.7055    -46905.13    0.2653546 
   40200     279.0325   -999.59137    126906.62   -43533.742    3405.9871   -46939.729   0.27439352 
   40300    270.57045   -984.50369    126883.33    -43589.97    3302.6957   -46892.666   0.25402997 
   40400    269.46865   -1003.7178    126887.23   -43630.805    3289.2467   -46920.051   0.26532109 
   40500    275.79192   -993.97578    126899.12   -43533.272    3366.4312   -46899.704   0.28206527 
   40600    271.45387   -981.99166    126914.41   -43537.847    3313.4792   -46851.326   0.25921791 
   40700    269.88006   -1031.4275    126884.23   -43600.728    3294.2686   -46894.996   0.26528707 
   40800    279.28494   -994.22009    126890.33   -43510.744    3409.0685   -46919.813   0.28165712 
   40900    275.75936   -1018.5536    126883.44   -43570.225    3366.0338   -46936.258   0.25646978 
   41000    276.45132   -1022.3553    126905.85   -43573.774    3374.4801   -46948.254   0.27126311 
   41100    272.58068   -969.48078    126885.04   -43575.961    3327.2335   -46903.194   0.27638257 
   41200    278.92205   -974.49386    126926.16    -43481.14    3404.6389   -46885.779   0.25949909 
   41300    279.10731   -1002.7992    126917.43   -43524.078    3406.9002   -46930.978   0.27131671 
   41400    274.83693   -990.69156    126901.51    -43511.77    3354.7743   -46866.544    0.2755246 
   41500    278.35136   -1006.2017    126910.25     -43484.2    3397.6729   -46881.873   0.26124393 
   41600    280.19237   -971.85043    126931.95   -43501.662    3420.1449   -46921.807   0.26645077 
   41700    269.75114   -1011.6343    126897.35   -43603.251    3292.6949   -46895.946   0.27966824 
   41800    270.40044   -986.22465    126915.55   -43532.456    3300.6206   -46833.077   0.25810573 
   41900    272.32419   -982.39954    126915.18   -43606.865    3324.1027   -46930.968   0.26589345 
   42000    276.76723   -994.74954    126897.84   -43577.586    3378.3363   -46955.922   0.27780562 
   42100    271.89276   -991.89278    126879.71   -43648.255    3318.8364   -46967.091   0.25006045 
   42200    278.15239    -973.1156     126873.7   -43592.857    3395.2442   -46988.101   0.26450889 
   42300    279.08587   -993.10703    126886.65   -43576.869    3406.6386   -46983.508   0.28193667 
   42400    277.47472   -979.79836     126884.3   -43576.718    3386.9722    -46963.69   0.24785461 
   42500     272.8928   -986.16048    126894.78   -43554.375    3331.0433   -46885.419   0.27086606 
   42600    269.64515   -988.04518    126897.51   -43567.158    3291.4012   -46858.559   0.27942327 
   42700    277.25346   -999.90083    126871.53   -43648.723    3384.2713   -47032.994   0.24272918 
   42800     275.0191     -993.385    126861.33   -43572.883    3356.9979   -46929.881   0.27818498 
   42900    270.24264   -1023.9087     126877.2   -43602.351    3298.6943   -46901.046   0.27544705 
   43000    270.83323   -1005.2486    126892.08     -43584.4    3305.9033   -46890.303   0.25700201 
   43100    270.42217   -984.92831    126893.89   -43539.273    3300.8858   -46840.159   0.27104067 
   43200    272.45746   -991.48872    126923.37   -43552.441    3325.7294   -46878.171   0.27078607 
   43300    271.28934    -1001.572    126910.15    -43600.86    3311.4708   -46912.331   0.25309969 
   43400    277.64464   -971.64439    126930.56   -43527.776    3389.0463   -46916.822   0.26071733 
   43500    272.62011   -1012.7486    126940.62   -43535.551    3327.7148   -46863.266   0.27596468 
   43600    273.35006   -1010.7467     126925.2   -43558.899    3336.6249   -46895.524   0.24836707 
   43700    275.99263   -1024.0058    126877.97   -43629.898    3368.8812   -46998.779   0.26779952 
   43800    270.27795   -1004.3863     126874.9   -43649.263    3299.1253   -46948.389   0.27246535 
   43900    273.27406   -1005.3609    126879.01   -43577.399    3335.6972   -46913.096   0.25002373 
   44000    267.97066   -1004.1203    126846.68   -43662.889    3270.9617   -46933.851   0.27761293 
   44100    270.01556   -983.66231    126858.14   -43661.156    3295.9225   -46957.079   0.27111407 
   44200    274.11646   -991.76029    126887.45   -43589.697    3345.9798   -46935.676   0.25483085 
   44300    270.01274   -973.81165    126873.42   -43592.877    3295.8881   -46888.765   0.26760887 
   44400    272.45343   -1011.0318    126872.31   -43622.502    3325.6802   -46948.182   0.27375733 
   44500    274.42071   -971.79006    126911.12   -43610.504    3349.6936   -46960.198   0.24643141 
   44600     268.6217   -994.37925    126897.06   -43592.964    3278.9086   -46871.873   0.27364662 
   44700    274.39655   -972.69642    126882.92   -43578.788    3349.3988   -46928.187   0.27175366 
   44800     269.7016   -1034.7193    126890.51   -43580.652    3292.0902   -46872.742    0.2584524 
   44900    278.03257   -972.76426    126896.41   -43555.301    3393.7815   -46949.083   0.26715986 
   45000    267.55244    -1031.088     126885.6   -43563.838    3265.8567   -46829.695   0.27701959 
   45100    271.62385   -995.31481    126915.41   -43465.191     3315.554   -46780.745   0.26262516 
   45200    272.83547   -1008.9384    126935.17    -43508.32    3330.3436   -46838.663   0.26834574 
   45300    276.95612   -1007.5202    126927.94   -43546.231    3380.6419   -46926.872   0.27846717 
   45400    270.55835   -1000.8707    126931.62   -43562.824    3302.5481   -46865.372   0.25356399 
   45500    275.36534   -1012.1619    126936.22   -43527.461    3361.2242   -46888.685    0.2689899 
   45600     277.1687    -994.3001    126954.18   -43499.225    3383.2368   -46882.462   0.27540371 
   45700    277.66632   -1009.2871     126931.7   -43474.157     3389.311   -46863.468   0.24969841 
   45800    275.28605   -1014.3501    126932.74   -43523.323    3360.2563    -46883.58    0.2725944 
   45900    277.87742   -952.23601    126932.24   -43449.872    3391.8877   -46841.759   0.27059919 
   46000    274.21849   -993.38924    126950.96   -43483.443    3347.2253   -46830.668   0.25728736 
   46100    277.73323   -996.55392    126970.56   -43405.885    3390.1277   -46796.012   0.26818094 
   46200    280.13438   -1037.9428    126956.23    -43465.17    3419.4372   -46884.607   0.27343814 
   46300    278.70325   -979.84766    126970.46   -43430.446    3401.9682   -46832.414   0.25189994 
   46400    276.44462   -1000.0847    126961.05   -43490.614    3374.3983   -46865.012   0.26891578 
   46500    280.01005   -978.89025     126940.4   -43426.745    3417.9194   -46844.664   0.27547037 
   46600    274.26129    -976.9385     126923.9   -43521.912    3347.7477   -46869.659   0.25444763 
   46700    279.12463   -1015.3482    126927.87   -43456.358    3407.1117    -46863.47   0.27776367 
   46800    275.79795   -978.60887    126954.36   -43452.528    3366.5048   -46819.033    0.2724297 
   46900    277.47715   -979.79409    126952.13   -43479.797    3387.0018   -46866.799   0.25350195 
   47000    277.05279    -1047.199    126962.36   -43539.208    3381.8219    -46921.03   0.26672791 
   47100    274.68308   -1044.2639    126927.64   -43550.766    3352.8962   -46903.662   0.27130798 
   47200    278.45683   -989.82988    126906.88   -43555.878    3398.9602   -46954.838   0.24552774 
   47300    272.12843   -1019.2631    126922.86   -43617.766    3321.7131   -46939.479   0.27195457 
   47400    274.95128   -978.89713    126900.01    -43567.37      3356.17    -46923.54   0.27677603 
   47500    272.50696   -1030.0121    126897.36    -43598.54    3326.3337   -46924.874   0.24552981 
   47600    273.17918   -1026.4321    126921.21   -43571.378     3334.539   -46905.917    0.2777786 
   47700    276.26369   -983.26666    126941.07   -43519.384    3372.1898   -46891.574   0.27116231 
   47800     271.6409   -1015.1199    126935.95   -43557.442    3315.7621   -46873.204   0.25067701 
   47900    271.41617    -1008.092    126898.29   -43607.851     3313.019    -46920.87   0.27475281 
   48000    272.23753   -998.15242     126890.4   -43563.677    3323.0449   -46886.722    0.2738705 
   48100    270.28975   -1032.4589     126859.2   -43613.566    3299.2694   -46912.836   0.25856866 
   48200    272.59792   -1006.0686    126857.89   -43599.011    3327.4439   -46926.455   0.27810875 
   48300     278.1684   -963.00919    126867.56   -43572.021    3395.4395   -46967.461   0.27306115 
   48400    272.49524   -1007.8789    126869.47   -43573.586    3326.1906   -46899.777   0.25491076 
   48500    273.30453    -1015.655    126847.81   -43648.114    3336.0692   -46984.183   0.27638089 
   48600    268.48089   -1003.7703    126858.23    -43645.73    3277.1897    -46922.92   0.27731812 
   48700    276.00941   -981.57921    126898.17   -43555.184     3369.086    -46924.27   0.25444075 
   48800    274.31638    -996.9838    126910.29   -43562.849    3348.4201   -46911.269   0.27616349 
   48900    272.65182   -993.58486     126908.2   -43543.093    3328.1019   -46871.194   0.27520636 
   49000    273.52266   -984.88953    126918.57   -43591.325    3338.7317   -46930.057   0.25130796 
   49100    270.84529    -982.2262    126937.94   -43532.233    3306.0506   -46838.283   0.28300439 
   49200    277.64259   -973.16641    126949.42   -43532.406    3389.0213   -46921.428   0.26257878 
   49300    269.86968   -1023.6376    126929.93   -43590.634    3294.1418   -46884.776    0.2525131 
   49400    274.31298   -974.46769    126911.37   -43629.823    3348.3787   -46978.202   0.27220201 
   49500    271.88383    -998.6045    126914.36   -43562.508    3318.7275   -46881.235     0.271653 
   49600     274.0732   -987.57945    126913.87   -43585.072    3345.4518   -46930.524   0.24565482 
   49700    272.99744   -1024.5846    126903.53   -43603.046    3332.3206   -46935.367   0.27264463 
   49800    276.46258   -972.32356    126880.41   -43577.976    3374.6176   -46952.594   0.27262213 
   49900    277.47705   -989.23723    126886.18   -43543.436    3387.0006   -46930.437   0.25165634 
   50000    275.80229   -973.43219     126895.2   -43551.261    3366.5578   -46917.819   0.27995235 
   50100    279.14983   -1000.2216    126938.92   -43434.898    3407.4192   -46842.317   0.27249365 
   50200    273.60779   -999.33433    126909.83   -43504.238    3339.7708   -46844.009   0.25646316 
   50300    274.19976   -1017.3344    126922.27   -43518.575    3346.9967   -46865.571   0.27920024 
   50400    274.29581   -963.08394    126906.27   -43534.726    3348.1691   -46882.895   0.27126339 
   50500    274.81839    -1025.332     126917.5   -43485.861    3354.5479   -46840.409   0.25488151 
   50600    282.81128   -992.29608    126948.89   -43383.961    3452.1124   -46836.073   0.27979198 
   50700    270.49156   -1070.4437    126920.53    -43605.78    3301.7328   -46907.513   0.27412437 
   50800    270.94136   -1000.3041    126889.15   -43616.822    3307.2232   -46924.045   0.25030947 
   50900    267.93366   -954.13938    126852.16   -43622.432      3270.51   -46892.942   0.27503799 
   51000    270.93668   -992.95423    126840.22   -43584.531    3307.1662   -46891.697   0.27402386 
   51100    269.89447    -1000.772     126854.7   -43585.326    3294.4445   -46879.771   0.26087889 
   51200    272.94527   -1018.1519    126836.32   -43633.384    3331.6838   -46965.067   0.27500121 
   51300    274.01445   -968.56212    126817.14   -43645.929    3344.7347   -46990.664   0.26839741 
   51400    278.23373   -996.39472    126819.62   -43585.925    3396.2369   -46982.162   0.25796559 
   51500    271.04103   -1002.8725    126854.03   -43613.916    3308.4399   -46922.356   0.27885018 
   51600    271.72644   -993.56882    126876.49   -43565.598    3316.8062   -46882.404   0.27289603 
   51700    271.18517   -980.88264    126889.22   -43509.533    3310.1993   -46819.732   0.25669088 
   51800    271.64769   -980.39457    126924.51   -43500.847     3315.845   -46816.692   0.28174227 
   51900    273.98039   -992.70869    126915.33   -43559.552    3344.3189   -46903.871   0.27279452 
   52000    277.66495   -1008.3683    126889.19   -43562.393    3389.2942   -46951.687   0.25551832 
   52100    272.84662   -962.04406    126874.55   -43635.974    3330.4797   -46966.454   0.27647055 
   52200    270.72946   -1003.9735    126827.03   -43660.017    3304.6367   -46964.653   0.27375456 
   52300    271.68912   -996.27057    126821.76   -43658.901    3316.3507   -46975.252   0.26051981 
   52400    269.02019   -1028.2491    126831.68   -43739.482    3283.7727   -47023.254    0.2793955 
   52500    271.38992   -975.40394    126831.22    -43627.54    3312.6986   -46940.239   0.27039277 
   52600    273.02098    -965.5732    126897.13   -43549.057     3332.608   -46881.665   0.25476268 
   52700    273.35865   -1032.5114    126902.05   -43560.283    3336.7297   -46897.013   0.28168827 
   52800    276.33213   -996.99698    126951.37   -43463.156    3373.0252   -46836.181   0.27104431 
   52900    274.69394     -1021.68    126941.53    -43509.76    3353.0288   -46862.789   0.25729214 
   53000    275.06742   -951.68299    126928.09   -43476.793    3357.5877   -46834.381   0.27358125 
   53100    277.55557   -996.00332    126917.97   -43589.289    3387.9591   -46977.248   0.26562711 
   53200    272.76673   -1006.9619    126880.91   -43635.031    3329.5045   -46964.535   0.25835203 
   53300    276.24751   -1025.8926     126883.6   -43626.484    3371.9924   -46998.477   0.27385406 
   53400    271.80167   -1046.2094    126875.58     -43544.5    3317.7246   -46862.224   0.27589638 
   53500    275.66971   -978.33373    126871.76   -43511.814    3364.9395   -46876.753   0.26008276 
   53600    274.20844    -983.0172    126874.17   -43592.844    3347.1026   -46939.947   0.28191242 
   53700    274.31027   -992.57006    126885.89   -43550.425    3348.3456    -46898.77   0.27199179 
   53800    275.85441   -973.04885    126875.04   -43590.387     3367.194   -46957.581   0.25091165 
   53900    271.20173   -986.31025     126869.9   -43593.357    3310.4015   -46903.759   0.28393276 
   54000    267.34283   -997.86174    126870.64   -43621.171    3263.2981   -46884.469   0.27018893 
   54100    272.28128   -1006.1928    126880.11   -43572.257    3323.5788   -46895.836   0.26134456 
   54200     274.3867   -997.64294    126902.89   -43519.789    3349.2786   -46869.068   0.28185361 
   54300    280.87002   -983.98259    126933.82   -43457.131    3428.4166   -46885.548   0.26849358 
   54400    276.05126   -999.05282    126952.35    -43420.33    3369.5968   -46789.927   0.26449679 
   54500    281.84596   -979.84662    126969.19   -43479.539    3440.3294   -46919.869   0.27035026 
   54600    279.17351   -969.02832    126977.71   -43467.171    3407.7084   -46874.879   0.26535458 
   54700    280.89641   -969.96365    126939.54   -43494.938    3428.7387   -46923.676   0.25123107 
   54800    277.09915   -998.37949    126950.04   -43479.002    3382.3878   -46861.389   0.28043842 
   54900    274.91099   -1075.3321    126923.07   -43483.598    3355.6782   -46839.276   0.27515585 
   55000     278.6676   -984.15167     126941.5   -43498.502    3401.5329   -46900.035   0.25163823 
   55100    278.62676   -977.03251     126939.2   -43504.365    3401.0344   -46905.399   0.27889089 
   55200    273.69151   -1016.5883    126886.86    -43636.53    3340.7928   -46977.323   0.26859702 
   55300    272.55857   -1008.2585    126856.28   -43681.166    3326.9636    -47008.13   0.25538344 
   55400    275.27597   -968.75678    126845.81   -43626.411    3360.1334   -46986.545   0.28117009 
   55500    272.28878   -1019.4275    126834.66   -43624.646    3323.6705   -46948.317   0.26297899 
   55600    277.07633   -982.25915    126870.21   -43517.678    3382.1093   -46899.788    0.2566716 
   55700    276.33972   -1046.1666    126889.84   -43464.508    3373.1179   -46837.626   0.29176766 
   55800    283.83986   -978.38906    126926.25   -43449.705    3464.6677   -46914.373    0.2663074 
   55900    277.54803   -1006.5615    126928.06   -43481.244    3387.8671   -46869.111   0.25673368 
   56000    271.65596   -986.34015    126925.32   -43486.979     3315.946   -46802.925   0.28972881 
   56100    279.64797   -998.76155    126918.55   -43472.155    3413.4997   -46885.655   0.27007311 
   56200    274.74863   -1005.1236    126950.47   -43494.284    3353.6964    -46847.98    0.2481565 
   56300    273.72994   -1013.8513    126940.77   -43576.164    3341.2618   -46917.426   0.27586274 
   56400    274.16498   -989.50171    126906.19   -43608.996    3346.5721   -46955.568    0.2602752 
   56500    270.70615   -973.61651    126863.01   -43658.875    3304.3522   -46963.227    0.2527656 
   56600    268.11551   -1021.7646    126827.09   -43701.848    3272.7298   -46974.578   0.28265274 
   56700    272.47938   -1030.2422    126850.52   -43656.846     3325.997   -46982.843   0.26838173 
   56800    278.84645   -979.82658    126882.94   -43556.876    3403.7161   -46960.592   0.24915765 
   56900    270.95658   -1031.0423     126889.2   -43659.348    3307.4091   -46966.757   0.27886089 
   57000    269.73928   -1012.6511    126872.89   -43676.359    3292.5501   -46968.909   0.26327664 
   57100    271.25278   -989.48706    126895.51   -43566.509    3311.0246   -46877.534   0.24991084 
   57200    270.84867   -977.72959    126911.91   -43538.599    3306.0919   -46844.691   0.28997199 
   57300        268.7   -1007.8603    126888.34   -43653.475    3279.8643   -46933.339   0.26715851 
   57400    278.56389   -980.47185     126883.3   -43568.323     3400.267    -46968.59    0.2569521 
   57500    273.41089   -996.29702    126901.89   -43562.717    3337.3674   -46900.085   0.28508039 
   57600    272.76119   -1026.5683    126887.33   -43632.767    3329.4369   -46962.204   0.26079055 
   57700    272.55362   -998.18661    126873.75   -43585.729    3326.9031   -46912.632   0.25543461 
   57800    277.90176   -969.42516    126894.99   -43512.851    3392.1848   -46905.036    0.2833652 
   57900    278.19863    -959.7566    126887.55   -43578.167    3395.8085   -46973.976   0.26300796 
   58000    273.84702   -1004.8345    126900.59   -43510.175     3342.691   -46852.866   0.26375397 
   58100    268.83905   -1004.4761    126904.57   -43570.021    3281.5616   -46851.582   0.28380309 
   58200    278.70404   -965.61568    126938.96   -43427.856    3401.9777   -46829.834   0.27164645 
   58300     275.4581   -984.45441    126946.78    -43495.48    3362.3565   -46857.836    0.2581295 
   58400     276.0215   -994.76892    126932.78   -43535.286    3369.2336    -46904.52   0.27885351 
   58500    274.29707   -995.49513    126911.08   -43558.075    3348.1845    -46906.26    0.2656717 
   58600    272.41529    -986.8178    126898.99   -43604.051    3325.2146   -46929.265   0.25594963 
   58700    273.46915   -985.88893     126912.5   -43558.622    3338.0785     -46896.7   0.28808319 
   58800     272.4753   -971.87299    126923.76   -43565.816    3325.9471   -46891.763   0.26507289 
   58900    277.43037   -993.22845    126935.44   -43511.003    3386.4308   -46897.434   0.26001863 
   59000    282.25493   -979.04563    126991.09   -43441.327    3445.3214   -46886.648   0.28325559 
   59100    279.51288   -993.08401    126964.84   -43451.864    3411.8508   -46863.715   0.26934871 
   59200    274.12149   -1031.3172     126940.9   -43524.187    3346.0413   -46870.228    0.2605855 
   59300    275.34885   -997.11046    126919.94   -43538.039    3361.0229   -46899.062   0.27750879 
   59400    275.29705   -1008.7375    126919.68   -43519.328    3360.3906   -46879.719   0.26903418 
   59500    272.14081   -1037.1853    126894.87   -43617.579    3321.8642   -46939.443   0.25632132 
   59600    274.67502   -976.41469    126897.15   -43557.364    3352.7979   -46910.162   0.27302184 
   59700     272.9865   -970.03847    126911.49   -43511.076    3332.1871   -46843.263   0.27217465 
   59800    274.94009   -973.39193    126870.43   -43635.337    3356.0334   -46991.371   0.25853514 
   59900    271.04204   -995.97553    126868.78   -43638.279    3308.4522   -46946.731   0.28001064 
   60000    277.98232   -1015.7749     126903.6    -43592.13    3393.1682   -46985.298   0.26454557 
   60100     274.0252   -987.73366    126897.54   -43581.059    3344.8659   -46925.925   0.25799731 
   60200    278.45188   -970.47532    126921.71   -43540.931    3398.8998   -46939.831   0.27931669 
   60300    275.63619   -1014.2157    126940.23   -43487.949    3364.5303   -46852.479   0.26897749 
   60400     279.2287   -974.99301    126978.13   -43450.315     3408.382   -46858.697   0.25600281 
   60500    280.57053   -1039.6429    126990.84   -43447.849     3424.761    -46872.61   0.28049053 
   60600    275.47815   -1019.9707    126963.32   -43533.435    3362.6012   -46896.036   0.26595944 
   60700    273.75738   -1042.8874    126979.27   -43404.017    3341.5967   -46745.614   0.26683867 
   60800    273.01008   -1008.8378    126980.05   -43396.814    3332.4749   -46729.289   0.28852507 
   60900    276.98057   -1025.7898    126966.03   -43445.487    3380.9404   -46826.427   0.25875972 
   61000    274.05234   -995.70235    126934.79   -43530.148    3345.1972   -46875.345   0.26152606 
   61100     274.5025   -1018.4886    126949.84   -43478.358     3350.692    -46829.05   0.28777076 
   61200     276.4425   -1035.6632    126949.93   -43498.699    3374.3724   -46873.072   0.25934441 
   61300    278.22096   -946.18411    126954.94   -43522.998    3396.0811   -46919.079   0.25396576 
   61400    271.87958   -1017.4145     126941.6   -43538.694    3318.6755   -46857.369    0.2796329 
   61500    272.52027   -1000.3751    126946.77   -43532.159    3326.4962   -46858.655   0.26879684 
   61600    268.91878   -987.16629    126935.54    -43588.13    3282.5349   -46870.665   0.25493265 
   61700    274.37249    -1000.874    126922.05    -43600.45     3349.105   -46949.555   0.27558092 
   61800    272.49735   -1003.3913    126902.64   -43596.378    3326.2164   -46922.595   0.26371609 
   61900    277.33456   -966.80189    126905.86   -43514.073    3385.2613   -46899.334   0.25470334 
   62000    275.71108   -967.78777    126915.49   -43529.931    3365.4444   -46895.376   0.28058793 
   62100    275.78778   -1014.7767    126925.05   -43555.367    3366.3807   -46921.748   0.26083195 
   62200    274.24297   -957.46532    126935.56   -43469.844    3347.5241   -46817.368   0.25851549 
   62300    272.96979   -1017.8693    126933.36   -43571.654    3331.9831   -46903.637   0.28000511 
   62400    277.83315   -1010.6646    126940.19    -43569.13    3391.3473   -46960.478    0.2547815 
   62500    274.14054   -989.65854    126936.25   -43574.968    3346.2738   -46921.242   0.25455462 
   62600     270.5558   -994.02343    126931.91   -43593.192    3302.5169   -46895.709   0.27255819 
   62700    272.17661   -996.45781    126921.77    -43594.97    3322.3013   -46917.272   0.25559579 
   62800    271.92224   -1020.1523    126894.34   -43597.735    3319.1963   -46916.932   0.26752763 
   62900    274.12304   -999.10445     126921.2   -43548.329    3346.0601   -46894.389   0.27526794 
   63000    272.18491   -1027.8886    126925.09   -43588.566    3322.4025   -46910.969   0.25958044 
   63100    270.48332   -1034.1628    126899.74   -43638.769    3301.6322   -46940.402   0.26766155 
   63200    273.68975   -983.53789    126929.08   -43514.084    3340.7713   -46854.855   0.27806689 
   63300    269.82628   -1003.9208    126911.48   -43602.888    3293.6121     -46896.5   0.26118573 
   63400    267.40831   -988.93038    126881.74   -43662.998    3264.0974   -46927.096   0.25834011 
   63500    269.05592   -1017.5414    126897.26   -43625.959    3284.2089   -46910.168   0.28354227 
   63600    268.72426   -1024.4031    126858.77   -43690.067    3280.1604   -46970.228    0.2696508 
   63700    271.39261   -1009.0459    126860.96   -43700.132    3312.7314   -47012.864   0.25313731 
   63800    267.95709   -990.96472    126853.07   -43726.418    3270.7961   -46997.214   0.28117573 
   63900    272.04251   -1050.2634    126858.38    -43627.02    3320.6644   -46947.684   0.26047681 
   64000    278.09021   -992.58768    126880.52   -43551.791    3394.4852   -46946.277    0.2638583 
   64100    272.99512   -1010.0957    126927.97   -43518.761    3332.2923   -46851.053   0.28535729 
   64200    278.64088   -966.63951    126947.35   -43487.587    3401.2069   -46888.794   0.25326919 
   64300    274.54852   -1046.9846    126957.14   -43501.425    3351.2538   -46852.679   0.26812277 
   64400    275.20712   -975.64147    126946.32   -43577.128    3359.2929   -46936.421   0.27564902 
   64500    272.09653   -1021.2199    126893.76   -43559.738    3321.3238   -46881.062    0.2656859 
   64600    269.88298   -1011.1482    126892.16   -43618.962    3294.3042   -46913.266   0.26722299 
   64700    271.06397    -1000.664    126887.94    -43641.56    3308.7199    -46950.28    0.2812657 
   64800    277.17417   -984.36615    126890.96    -43576.28    3383.3035   -46959.583   0.26006159 
   64900    269.63042   -1028.3295    126921.16   -43514.773    3291.2214   -46805.994    0.2716277 
   65000    276.17079   -963.34608    126964.19   -43496.298    3371.0558   -46867.354   0.27172377 
   65100    275.42845   -990.73834    126950.35   -43538.968    3361.9946   -46900.963   0.26416485 
   65200    278.75174   -1002.0921    126939.94   -43568.132    3402.5601   -46970.692    0.2614824 
   65300    274.92278   -1009.4937    126932.05   -43482.998    3355.8222    -46838.82   0.28214874 
   65400    279.92856   -988.41141    126920.76   -43530.466    3416.9247   -46947.391   0.26153049 
   65500    281.50167   -986.87231    126922.89    -43462.38    3436.1268   -46898.507   0.25571868 
   65600    275.20316   -977.87688    126925.43   -43452.336    3359.2446   -46811.581   0.29047635 
   65700    282.55819   -1000.5576    126966.72   -43458.991    3449.0231   -46908.014   0.25682974 
   65800    275.37743   -1013.8792    126941.63   -43502.286    3361.3718   -46863.658   0.26372884 
   65900    273.66945   -997.86419    126939.79    -43520.78    3340.5234   -46861.303   0.28708121 
   66000    275.69988   -999.27121    126938.12   -43518.987    3365.3077   -46884.294   0.25926055 
   66100    275.24784   -984.63787    126905.67   -43550.492    3359.7899   -46910.282   0.27167035 
   66200    272.78249   -996.12726    126877.63    -43610.44    3329.6969   -46940.137   0.27534722 
   66300    271.20811   -1012.9158    126880.79   -43606.145    3310.4794   -46916.624   0.26134657 
   66400    275.87509   -1006.6747    126874.41   -43584.726    3367.4465   -46952.172   0.26643961 
   66500    276.23889   -1025.5223    126892.27   -43558.044    3371.8871   -46929.931   0.28199181 
   66600    271.99742   -1022.8825    126884.29   -43598.151     3320.114   -46918.265   0.26626489 
   66700    271.05498   -974.15565    126881.61   -43589.888    3308.6101   -46898.499   0.26283424 
   66800    270.05694   -988.33589    126871.68    -43628.91    3296.4277   -46925.337   0.28459681 
   66900    272.98346    -979.4504    126882.51   -43607.924      3332.15   -46940.074   0.26102059 
   67000    266.35584   -989.46936       126864   -43710.466    3251.2505   -46961.716   0.25828775 
   67100    279.38721   -945.26283    126893.27   -43549.643    3410.3168    -46959.96   0.27775877 
   67200    268.91548   -1014.0776    126852.16   -43598.455    3282.4945   -46880.949    0.2646207 
   67300    267.57611   -1019.1646    126888.33   -43596.362    3266.1456   -46862.507   0.26481552 
   67400    270.25794   -964.96663    126900.81   -43558.825    3298.8812   -46857.706   0.28900509 
   67500    277.21166   -1031.6176    126897.86   -43542.793    3383.7611   -46926.554   0.25419705 
   67600    281.04085   -995.29347       126938   -43434.257    3430.5019   -46864.759   0.26899509 
   67700    275.81707   -984.95102    126934.86   -43476.938    3366.7382   -46843.676   0.28593504 
   67800    278.18044   -989.43837    126962.84   -43523.469    3395.5864   -46919.056   0.25134219 
   67900    271.72656   -996.41054    126907.67   -43533.759    3316.8077   -46850.567   0.27128479 
   68000    275.37968   -1001.2027    126896.25    -43583.91    3361.3993   -46945.309   0.27648318 
   68100    275.68148   -1014.0315     126876.1   -43590.285    3365.0831   -46955.368    0.2628284 
   68200    269.19903   -1038.5299    126874.44   -43597.249    3285.9557   -46883.205   0.26908963 
   68300    273.34442   -997.97899    126894.66   -43524.987    3336.5561   -46861.543   0.28010528 
   68400    276.93804   -990.28555    126916.73   -43453.702    3380.4212   -46834.123   0.26171929 
   68500    280.33448   -994.71222    126969.85    -43486.36    3421.8796    -46908.24   0.25382044 
   68600    275.33998   -1023.9878    126936.58   -43505.649    3360.9147   -46866.564   0.28012495 
   68700    277.91126   -989.23497    126906.38   -43546.429    3392.3007    -46938.73   0.25715061 
   68800    269.92962   -1032.7922    126908.05   -43539.125    3294.8736   -46833.999   0.26570244 
   68900    276.10596   -997.21036     126892.2   -43533.186    3370.2645   -46903.451   0.28150746 
   69000    273.88801    -1015.464    126910.54   -43524.921    3343.1913   -46868.113   0.26459835 
   69100    270.60981   -1015.7399    126891.13   -43631.136    3303.1763   -46934.312   0.26334183 
   69200    272.11062   -1009.5119    126903.72    -43605.39    3321.4958   -46926.886   0.28302253 
   69300    276.04491   -1003.8472    126879.07   -43619.342    3369.5193   -46988.861   0.25578202 
   69400    271.54604   -1007.5627    126874.42   -43679.607    3314.6042   -46994.212   0.26262191 
   69500    271.33267   -992.07232    126858.12   -43613.342    3311.9998   -46925.342   0.28379986 
   69600    281.43263   -964.84521    126945.46   -43437.435    3435.2841   -46872.719   0.24617957 
   69700    270.33619   -1073.4697    126921.41   -43507.151    3299.8363   -46806.988   0.27712036 
   69800     276.6211   -982.04011    126892.35   -43556.733    3376.5526   -46933.285    0.2768666 
   69900    268.84499   -1032.3719    126892.38    -43622.51    3281.6341   -46904.144   0.26187295 
   70000    276.90325   -994.51113    126886.05   -43545.206    3379.9966   -46925.203   0.26853736 
   70100    274.00912   -986.11802    126863.24   -43647.628    3344.6696   -46992.297   0.27988687 
   70200    274.67817   -971.42651    126880.06   -43530.555    3352.8364   -46883.391   0.26084379 
   70300    272.68478   -1013.9044    126896.53   -43570.092    3328.5042   -46898.596   0.26250675 
   70400    278.34623   -995.61722    126923.98   -43446.411    3397.6102   -46844.022   0.28619673 
   70500    269.62785   -1002.1006     126926.5   -43546.041      3291.19   -46837.231   0.25402763 
   70600     277.6527   -1005.7288    126925.76   -43549.378    3389.1447   -46938.523   0.26700922 
   70700    274.76045   -1004.3017    126934.38   -43560.546    3353.8407   -46914.387   0.28281726 
   70800     271.9805   -1005.4031    126935.82   -43582.887    3319.9075   -46902.794   0.24983627 
   70900    271.34521   -1003.7204    126924.16   -43612.428    3312.1529   -46924.581   0.26312561 
   71000    273.97181   -1018.3593    126921.06   -43580.573    3344.2142   -46924.787    0.2808147 
   71100    273.52838   -971.86872    126900.97   -43632.761    3338.8015   -46971.562   0.24961097 
   71200    274.96639   -1012.9495    126916.33    -43567.45    3356.3544   -46923.805    0.2658847 
   71300    272.11453   -1000.7392    126897.43   -43657.614    3321.5435   -46979.157   0.27329146 
   71400     271.6161   -1002.7934    126914.28   -43606.317    3315.4595   -46921.777   0.25357776 
   71500    273.22317   -995.49378    126935.65   -43562.858     3335.076   -46897.934   0.26920608 
   71600    273.99851   -1007.2101    126955.16   -43554.175    3344.5401   -46898.715   0.26597159 
   71700    271.96632   -990.76084    126950.11   -43579.657    3319.7344   -46899.391   0.25562193 
   71800    269.17697   -1025.5618    126920.81   -43672.563    3285.6863   -46958.249   0.26407678 
   71900    269.57688    -998.6259     126893.4   -43681.412    3290.5678    -46971.98   0.27318505 
   72000    270.10003   -981.80352    126913.52    -43663.59    3296.9537   -46960.544   0.25389529 
   72100    279.09595   -979.37947    126944.95   -43543.249    3406.7615   -46950.011   0.25679577 
   72200    278.85981   -997.32352     126960.8   -43416.949    3403.8791   -46820.829   0.28193846 
   72300     275.3846   -1028.6919    127032.04   -43359.669    3361.4593   -46721.129   0.26128241 
   72400    276.61913   -1027.5925    127003.01   -43507.172    3376.5285   -46883.701   0.26417023 
   72500    270.07422    -1002.237     127009.2   -43512.987    3296.6386   -46809.625    0.2738701 
   72600     276.6576   -980.02613    127008.74   -43450.752    3376.9981   -46827.751    0.2472881 
   72700    272.14789   -1021.5144    126997.54   -43556.354    3321.9507   -46878.304   0.26673198 
   72800     278.3393   -997.25907       126957   -43537.038    3397.5256   -46934.564   0.27281317 
   72900     275.5645   -972.22808    126970.36   -43520.805    3363.6553    -46884.46   0.24595865 
   73000    274.06632   -976.55886    126972.62   -43564.911    3345.3678   -46910.279   0.26603734 
   73100    274.75725    -997.7474    126967.12   -43542.409    3353.8016   -46896.211   0.26961924 
   73200    277.48764   -994.34948    126987.95   -43459.385    3387.1298   -46846.515    0.2568627 
   73300    281.81308   -979.08317    126996.23   -43414.942     3439.928    -46854.87   0.26702117 
   73400      281.563   -1012.6766    127014.49   -43422.215    3436.8755   -46859.091   0.26594243 
   73500    282.25467   -996.18577     126999.7   -43401.927    3445.3183   -46847.245   0.25908835 
   73600     281.5326   -988.60426    126986.32   -43438.763    3436.5044   -46875.268   0.25672282 
   73700    276.12266   -1021.7248     126947.4   -43548.855    3370.4683   -46919.323   0.27775968 
   73800    272.12467   -1021.1619    126916.92   -43622.867    3321.6673   -46944.535   0.25442506 
   73900    272.83374    -992.1971    126929.58   -43588.528    3330.3224    -46918.85   0.26164959 
   74000    274.04122   -974.51319    126906.22   -43565.338    3345.0614   -46910.399   0.27848438 
   74100    283.08337   -962.44112    126987.44   -43416.932    3455.4337   -46872.366   0.24409882 
   74200     270.6869    -1060.986    127002.59   -43509.722    3304.1172    -46813.84   0.27203485 
   74300    271.23794   -1030.4378     126973.8   -43572.841    3310.8435   -46883.684   0.27450619 
   74400    271.23679   -1002.0048    126966.73   -43543.731    3310.8295   -46854.561   0.25409685 
   74500    273.66604   -941.87361     126933.1   -43603.828    3340.4819    -46944.31   0.25993451 
   74600    275.62027   -993.07533    126950.62   -43559.583     3364.336   -46923.919   0.26716997 
   74700    277.29084    -980.6558    126952.48   -43505.033    3384.7276    -46889.76    0.2603435 
   74800     274.8179   -1010.3896    126931.11   -43566.067    3354.5419   -46920.609   0.26583699 
   74900    277.71424   -1007.4347    126926.44   -43528.484    3389.8959    -46918.38   0.26923247 
   75000    276.58094   -961.52109    126924.44   -43575.669    3376.0624   -46951.732   0.25874015 
   75100    277.50243   -976.78239    126967.92   -43489.872    3387.3104   -46877.183   0.25912988 
   75200    274.88042   -1031.8669     126980.1   -43500.763    3355.3051   -46856.068   0.27929139 
   75300     271.1987   -978.87194    126939.64   -43563.352    3310.3644   -46873.716   0.26163078 
   75400    278.28609   -1015.5714    126929.45   -43587.913     3396.876   -46984.789   0.25226386 
   75500    270.94597   -1011.2675    126875.29   -43601.098    3307.2795   -46908.378   0.28846253 
   75600    273.37268   -997.11028    126911.66   -43533.362    3336.9009   -46870.263   0.25893052 
   75700    281.48157    -981.6003    126954.12   -43460.342    3435.8815   -46896.223   0.26934857 
   75800    281.16794   -989.24159     126964.8   -43443.907    3432.0532    -46875.96   0.27795927 
   75900    279.40909   -969.46267    126939.43   -43497.907    3410.5839    -46908.49   0.25582128 
   76000    274.94104   -1009.9028    126924.31   -43488.526     3356.045   -46844.571   0.28007296 
   76100    272.97998   -999.84662    126903.05   -43573.949    3332.1075   -46906.057   0.27778592 
   76200    270.77021   -999.87226    126872.64    -43629.12    3305.1342   -46934.254   0.26229318 
   76300    273.46034   -962.67791    126862.99    -43582.84     3337.971   -46920.811   0.26931966 
   76400     275.2326   -995.97331    126847.65   -43595.827    3359.6039   -46955.431   0.28180972 
   76500    276.70975    -1034.582    126866.68   -43550.641    3377.6347   -46928.276   0.27197177 
   76600    275.25093   -957.52837    126855.88   -43537.386    3359.8277   -46897.214   0.26705446 
   76700    279.18741   -951.75946    126876.72   -43505.268     3407.878   -46913.146   0.27953262 
[...]
   81900     268.1336   -1005.1756    126924.66   -43610.362    3272.9505   -46883.313   0.26628666 
   82000     274.6172     -927.662    126908.85   -43547.518    3352.0921    -46899.61   0.25543331 
   82100    270.74277    -1020.823    126927.73   -43496.382    3304.7992   -46801.181   0.30158163 
   82200    277.26599   -968.17298    126943.51   -43460.577    3384.4243   -46845.001   0.26482742 
   82300    267.42943   -1060.6378    126934.74   -43555.392    3264.3551   -46819.747   0.27081053 
   82400    280.64921   -956.26521    126935.75   -43477.357    3425.7213   -46903.079    0.2854911 
   82500     279.6967   -968.38406    126981.29   -43372.846    3414.0946   -46786.941    0.2572349 
   82600    274.29454   -1054.8328    126977.29   -43424.582    3348.1536   -46772.736   0.26927614 
   82700    276.67805   -1016.4555    126913.66   -43535.864    3377.2477   -46913.112   0.28387277 
   82800    277.70125   -985.75262    126889.81   -43532.795    3389.7373   -46922.532   0.26838402 
   82900    278.89801    -981.2766    126895.73     -43494.1    3404.3455   -46898.445   0.26628951 
   83000    272.00994   -986.27025    126900.51   -43453.894    3320.2668   -46774.161   0.29509198 
   83100    275.14822   -1011.2038     126948.5   -43439.987    3358.5739   -46798.561   0.27741489 
   83200     277.4075   -962.01236    126915.08   -43488.948    3386.1516     -46875.1   0.25913317 
   83300    277.31153   -998.25931    126920.05   -43516.743    3384.9802   -46901.723   0.28606431 
   83400    276.97982   -1016.9716    126921.72   -43526.243    3380.9312   -46907.175   0.27254058 
   83500    271.57469   -1027.9811    126898.03   -43645.619    3314.9539   -46960.573   0.25083343 
   83600    272.46434   -967.17686    126873.75   -43619.867    3325.8133    -46945.68   0.29119917 
   83700    273.24168   -974.61069    126861.08   -43616.851    3335.3019   -46952.152   0.26300191 
   83800    274.33209   -1032.8504    126843.53   -43599.245     3348.612   -46947.857   0.26497709 
   83900    273.11022   -1002.6468    126839.69   -43577.369    3333.6973   -46911.067   0.29930422 
   84000    272.88134   -1005.9771    126862.36    -43586.81    3330.9035   -46917.714   0.26382265 
   84100    272.83233   -1013.6883    126869.25   -43549.496    3330.3052   -46879.802   0.27243202 
   84200    273.66741   -1006.7392    126893.39   -43524.573    3340.4986   -46865.072   0.29419655 
   84300    275.80897   -1014.8077    126902.06   -43587.151    3366.6394   -46953.791   0.26657004 
   84400    272.65821   -959.99343    126890.27   -43577.321    3328.1798   -46905.501    0.2641673 
   84500    279.04553    -976.0653     126905.2    -43589.14    3406.1461   -46995.286   0.27535752 
   84600    272.92743   -999.50335    126908.54   -43517.659    3331.4661   -46849.125   0.27584008 
   84700    271.89143   -1008.9543     126911.6   -43540.953    3318.8202   -46859.773   0.26258796 
   84800    276.16292    -982.8543    126930.86   -43538.677    3370.9598   -46909.637   0.28251982 
   84900    279.60592   -987.69528    126936.93   -43467.129    3412.9866   -46880.116   0.27344906 
   85000    280.12979    -986.9784    126920.69   -43533.181    3419.3811   -46952.562   0.26132196 
   85100    276.07714   -1039.9869     126909.1    -43566.53    3369.9127   -46936.442   0.29238267 
   85200    273.26915   -999.00041    126914.78   -43542.935    3335.6373   -46878.572    0.2647439 
   85300    276.70024   -1003.9469    126925.85   -43550.543    3377.5185   -46928.061   0.25658427 
   85400    274.90128   -998.00388    126912.09   -43601.514    3355.5597   -46957.074    0.2828679 
   85500    274.33072   -964.01979    126915.63   -43561.124    3348.5952   -46909.719   0.25702482 
   85600    275.64681   -1022.8463    126916.96   -43585.281    3364.6599   -46949.941   0.25872524 
   85700    271.64495   -1004.4917    126912.81   -43580.266    3315.8116   -46896.078   0.28664325 
   85800     274.5418   -1010.5967    126921.33   -43545.348    3351.1717   -46896.519   0.26011666 
   85900    273.62106   -986.23173    126947.69   -43502.842    3339.9328   -46842.775   0.26776336 
   86000     275.7703   -980.51505    126948.27   -43554.295    3366.1674   -46920.463   0.27991326 
   86100    273.47597    -1034.246    126937.49   -43526.114    3338.1617   -46864.276   0.27050746 
   86200    275.90106   -995.68579    126938.47   -43530.535    3367.7635   -46898.298   0.26321351 
   86300    274.03502   -1038.9309       126917   -43558.033    3344.9858   -46903.019   0.28244553 
   86400    273.69751   -1026.3758    126875.01   -43588.355     3340.866   -46929.221   0.26973697 
   86500    274.92648   -997.81153    126896.24   -43635.303    3355.8673    -46991.17   0.25439903 
   86600    272.76392   -999.94496     126872.8   -43512.926    3329.4703   -46842.396   0.29574273 
   86700    278.22549   -995.49132    126891.16   -43524.938    3396.1364   -46921.074   0.26801729 
   86800    273.59267   -986.53355    126850.38   -43581.119    3339.5862   -46920.705   0.26106934 
   86900    270.69401   -953.90959     126866.7   -43543.696    3304.2041     -46847.9   0.29245769 
   87000    276.26676   -999.29076    126876.75   -43509.223    3372.2273    -46881.45   0.26532598 
   87100    280.16675   -990.12121    126876.47   -43547.696    3419.8322   -46967.529   0.26386434 
   87200    272.36035   -1010.2354    126898.01   -43504.592     3324.544   -46829.136   0.29904986 
   87300    270.86176   -1030.4731    126914.54    -43475.82    3306.2516   -46782.072   0.26229752 
   87400     275.4906   -1025.4004    126903.15   -43527.654    3362.7532   -46890.407   0.26505793 
   87500    279.78985   -986.72852    126895.97   -43488.264    3415.2317   -46903.495   0.28986477 
   87600    276.38982   -1069.5435    126906.43   -43523.007    3373.7294   -46896.736   0.26599805 
   87700    271.79379    -1049.009    126913.02   -43510.906    3317.6284   -46828.534   0.27369367 
   87800     271.7774   -1017.5408    126916.58   -43547.674    3317.4283   -46865.103    0.2833871 
   87900    272.62043   -988.06349    126920.58   -43606.144    3327.7187   -46933.863   0.26603144 
   88000    277.78153   -974.41568    126924.08   -43562.284    3390.7172   -46953.001   0.25968338 
   88100     276.9202   -1010.4666    126910.64   -43529.114    3380.2034   -46909.317   0.28597018 
   88200    266.77179   -1026.4162    126890.95   -43618.167    3256.3278   -46874.495   0.27285803 
   88300    273.33556   -977.32464    126860.36   -43585.113    3336.4479   -46921.561   0.26178737 
   88400    276.49125   -1027.3528    126896.29   -43530.275    3374.9675   -46905.243   0.29983362 
   88500    271.07287   -1012.1693    126879.81   -43573.173    3308.8285   -46882.001     0.269826 
   88600    272.82593   -988.90746    126882.66   -43555.122    3330.2272   -46885.349   0.26544508 
   88700    276.80514   -1024.8207    126899.14   -43536.127     3378.799   -46914.926   0.29347867 
   88800    270.05868   -1002.6725    126906.56   -43569.943    3296.4489   -46866.392   0.26507602 
   88900    272.01278   -992.21148    126894.18   -43575.203    3320.3015   -46895.505   0.27462881 
   89000    276.92647    -957.2349    126889.29   -43519.492      3380.28   -46899.772   0.28918833 
   89100    273.32524     -1018.11    126888.92   -43562.828    3336.3219   -46899.149   0.26471587 
   89200    273.77888   -1006.8312    126868.81   -43515.374    3341.8593   -46857.233   0.27986999 
   89300    270.91013   -1002.5389    126868.26   -43621.263     3306.842   -46928.105   0.29062577 
   89400    274.61088   -974.84472    126894.39   -43519.662     3352.015   -46871.677   0.27232607 
   89500     277.8091   -988.42695    126871.86   -43588.336    3391.0538    -46979.39   0.27359982 
   89600    272.24485   -1027.3873    126865.32   -43678.962    3323.1342   -47002.096   0.27942164 
   89700    274.33565   -982.92912    126886.73   -43580.403    3348.6554   -46929.059    0.2719479 
   89800    275.65323   -1017.3825    126898.72   -43528.545    3364.7384   -46893.283   0.26896919 
   89900    275.88053   -979.79914    126917.35   -43510.381    3367.5128   -46877.894   0.27964481 
   90000    274.50246   -999.32743    126913.26   -43543.421    3350.6915   -46894.113    0.2728298 
   90100     278.9323   -995.52865    126931.15   -43495.696     3404.764    -46900.46   0.26717481 
   90200    273.16353   -963.88127    126914.71   -43554.489     3334.348   -46888.837   0.28924677 
   90300    276.33998   -968.86987    126891.74    -43572.14    3373.1211   -46945.261   0.26227969 
   90400    277.33703   -1025.9372    126904.78    -43546.92    3385.2914   -46932.212   0.27271289 
   90500    274.47242   -986.44663    126905.96   -43542.956    3350.3248   -46893.281   0.29012542 
   90600    278.77814   -960.78058    126886.91   -43515.903    3402.8823   -46918.786   0.26371415 
   90700    272.54767   -1009.4854    126886.01   -43560.945    3326.8305   -46887.776   0.28411837 
   90800    271.70851   -982.23341    126878.48   -43598.471    3316.5874   -46915.058   0.28035648 
   90900    276.86618   -982.35774    126898.57   -43530.561    3379.5441   -46910.105   0.26918832 
   91000    272.21206   -987.64331    126900.72    -43615.73     3322.734   -46938.464   0.27906307 
   91100    268.31656    -990.6198    126885.44   -43676.018    3275.1839   -46951.202   0.27096981 
   91200    272.47261   -978.71424    126862.91   -43672.789    3325.9143   -46998.703   0.26868094 
   91300    267.95032   -1027.7135    126859.22   -43624.082    3270.7134   -46894.795   0.28435827 
   91400    272.77251   -1033.4257    126898.81   -43564.712    3329.5751   -46894.287   0.27771782 
   91500    282.84371   -980.61425    126936.71   -43417.791    3452.5083   -46870.299    0.2736282 
   91600    279.29859   -953.27058    126944.11   -43458.302    3409.2351   -46867.537   0.26906536 
   91700    271.45547    -1019.227    126947.74    -43554.71    3313.4987   -46868.208   0.27948839 
   91800    275.90272   -965.34565    126941.31   -43448.158    3367.7837   -46815.941    0.2719871 
   91900    276.09522   -995.25145    126933.48   -43497.097    3370.1335   -46867.231    0.2739349 
   92000    272.97745   -986.04758    126946.94   -43510.008    3332.0766   -46842.085   0.28653922 
   92100    274.27882    -962.5762    126945.99   -43561.451    3347.9617   -46909.413   0.25949281 
   92200    272.87658   -976.67757    126936.55    -43588.84    3330.8454   -46919.686   0.27866327 
   92300    278.97961   -993.34665    126964.05   -43470.946    3405.3415   -46876.287    0.2727986 
   92400    275.52449   -959.61054    126964.71   -43521.957    3363.1668   -46885.124   0.25654633 
   92500    273.74675   -965.10131    126967.46   -43502.165     3341.467   -46843.632   0.27662289 
   92600    275.86591   -1000.7866    127003.84    -43447.78    3367.3344   -46815.114   0.27245785 
   92700    276.97061    -972.4471    127007.25    -43528.67    3380.8188   -46909.489   0.25947258 
   92800    275.58695   -965.98223    126954.61    -43519.78    3363.9293   -46883.709   0.27130051 
   92900    273.75721   -1003.5587    126932.25   -43550.551    3341.5947   -46892.145    0.2734514 
   93000    271.89976   -989.21101    126929.76   -43569.073    3318.9219   -46887.995   0.26698407 
   93100    277.63618   -992.86022    126953.92    -43561.56     3388.943   -46950.503   0.26332056 
   93200    275.81255   -992.02983    126969.88   -43547.426     3366.683   -46914.109   0.27126602 
   93300    271.16011   -1033.5938    126936.89   -43598.753    3309.8935   -46908.647   0.27015645 
   93400    270.69171   -1019.2933    126916.75   -43648.399    3304.1759   -46952.575   0.26703298 
   93500     275.5089   -1002.3432     126902.4   -43609.467    3362.9765   -46972.444   0.27585364 
   93600    276.28821   -1024.8911    126930.09   -43580.197    3372.4892   -46952.686   0.26273031 
   93700    275.48993   -983.76847     126949.8   -43569.425    3362.7449    -46932.17   0.26741704 
   93800    268.62149   -1024.2211    126965.29    -43614.31     3278.906   -46893.216   0.27802042 
   93900    267.84653   -1031.2645    126947.26   -43646.333    3269.4465   -46915.779   0.25686384 
   94000    272.76353   -992.73935    126910.57   -43649.861    3329.4654   -46979.326   0.26892443 
   94100    275.27302   -1003.5618    126971.54   -43545.109    3360.0974   -46905.207   0.26654127 
   94200    270.87287   -1002.6086    127002.51   -43502.542    3306.3872   -46808.929   0.26201254 
   94300    275.62328   -1028.2174    126982.46   -43532.189    3364.3727   -46896.561   0.27309905 
   94400    273.10384   -976.46476    126980.56   -43562.652    3333.6194   -46896.272    0.2691239 
   94500     279.2596   -1002.3231    126960.49   -43474.344    3408.7591   -46883.103   0.27141681 
   94600    276.84521   -990.17479    126946.09   -43577.359    3379.2881   -46956.647   0.26015559 
   94700    272.55654   -1032.0233    126941.35   -43583.944    3326.9388   -46910.883   0.28060956 
   94800     277.9195   -980.60163    126910.03   -43574.641    3392.4014   -46967.042   0.26517533 
   94900     272.4066   -974.52892    126919.04   -43624.777    3325.1086   -46949.886   0.25798252 
   95000    273.50519   -984.29832    126897.28   -43588.307    3338.5185   -46926.825   0.28972929 
   95100    274.21005   -994.34032    126910.03   -43577.273    3347.1222   -46924.395   0.26683842 
   95200    275.85533   -993.54663    126925.35   -43552.482    3367.2052   -46919.687   0.27030352 
   95300     273.1934   -988.25839    126915.48   -43566.964    3334.7126   -46901.676   0.28301624 
   95400    277.16495   -975.54799    126928.04   -43532.971     3383.191   -46916.162   0.25911785 
   95500    277.64102   -984.43936     126955.2   -43492.865    3389.0021   -46881.867   0.27290843 
   95600    279.92245   -1029.8134     126925.9   -43537.957    3416.8501   -46954.807   0.28719668 
   95700    275.44263   -1026.6728    126923.82   -43520.821    3362.1676   -46882.988   0.26449496 
   95800    273.88152   -1008.3422    126887.83   -43529.237    3343.1121   -46872.349   0.27899864 
   95900    277.39768    -1035.154    126885.86   -43538.359    3386.0317   -46924.391   0.28735154 
   96000    273.00954   -1040.8547     126898.2   -43504.544    3332.4683   -46837.012   0.27326433 
   96100      281.526   -954.65916    126919.53   -43425.415    3436.4238   -46861.839    0.2716302 
   96200    280.43455   -1009.7255    126957.05   -43460.406     3423.101   -46883.507   0.28318571 
   96300    274.67747   -1009.3564    126918.41   -43489.337    3352.8278   -46842.164   0.27345896 
   96400    274.17054   -985.31866    126896.67   -43526.032    3346.6399   -46872.671   0.26755299 
   96500    271.95863   -1019.3122    126904.84   -43505.442    3319.6405   -46825.082   0.29481321 
   96600    273.04859   -1017.0941     126901.9   -43552.962     3332.945   -46885.907   0.26394051 
   96700    274.50879   -989.20068    126911.63   -43535.945    3350.7688   -46886.713   0.26381578 
   96800     271.2324   -997.12513    126933.76   -43554.748    3310.7759   -46865.524   0.29049477 
   96900    272.55858   -1025.9167    126938.81   -43603.626    3326.9637    -46930.59    0.2543456 
   97000    276.37509   -1005.8477    126917.66   -43615.698    3373.5497   -46989.247   0.26254422 
   97100    274.16498   -981.06087    126921.46   -43603.643    3346.5721   -46950.215   0.28207644 
   97200    273.69006   -976.44313    126932.89       -43593    3340.7751   -46933.775   0.26016282 
   97300    280.24751   -1021.5565    126961.81   -43462.952     3420.818    -46883.77   0.26735055 
   97400    276.70576   -995.47642    126958.48   -43508.457    3377.5859   -46886.043   0.28242469 
   97500    276.10996     -1017.24    126929.43     -43478.2    3370.3134   -46848.514   0.26934007 
   97600    277.36542   -973.59634    126939.55   -43468.156     3385.638   -46853.794   0.26924455 
   97700    277.14622   -1039.7078    126968.26   -43456.654    3382.9624   -46839.616   0.28188835 
   97800    277.93674   -993.45764    126942.35   -43502.658    3392.6118    -46895.27   0.26821889 
   97900    279.42024   -1000.8795    126929.74   -43491.804      3410.72   -46902.524   0.26357299 
   98000    276.21567   -1031.7341    126929.28   -43538.676    3371.6036    -46910.28   0.27756439 
   98100    275.12271    -1007.909    126930.62   -43533.485    3358.2626   -46891.748   0.27187023 
   98200    277.19869   -954.38493    126935.08   -43559.147    3383.6029    -46942.75   0.25786075 
   98300    273.39828   -985.26592     126932.2   -43460.776    3337.2135   -46797.989   0.29006034 
   98400    279.01217   -968.44899    126951.36   -43503.966    3405.7389   -46909.705   0.26330244 
   98500    282.61847   -972.61763    126946.92   -43524.627     3449.759   -46974.386   0.25402031 
   98600    276.23823    -973.5724    126933.26   -43516.484    3371.8791   -46888.363   0.28410549 
   98700    276.75707    -982.8761    126941.89    -43478.24    3378.2123   -46856.452   0.26111487 
   98800     276.5827   -978.38469    126949.97   -43462.251    3376.0838   -46838.335   0.27065326 
   98900    275.03254   -1022.8465     126939.8   -43537.148    3357.1619    -46894.31   0.28694468 
   99000     275.2949   -968.62105    126918.56   -43522.806    3360.3644   -46883.171   0.26386661 
   99100     271.9737   -1044.5397    126895.28   -43589.529    3319.8244   -46909.354   0.27129808 
   99200    273.32903   -997.90841    126891.37   -43564.411    3336.3681   -46900.779   0.28318767 
   99300    274.50601   -982.73315    126907.67   -43546.528    3350.7349   -46897.263   0.27010858 
   99400    276.25648   -1039.9257     126888.9   -43578.168    3372.1018    -46950.27   0.27345159 
   99500     277.4442   -997.80591    126906.36     -43532.9    3386.5996   -46919.499   0.27986747 
   99600    273.59154     -970.224    126906.71   -43513.369    3339.5724   -46852.941    0.2708691 
   99700    274.01903   -981.75881    126915.44   -43572.044    3344.7906   -46916.835   0.26226792 
   99800     275.5906   -980.13667    126917.05   -43549.358    3363.9738   -46913.332   0.27430322 
   99900    272.67087   -985.73101    126930.99   -43585.734    3328.3344   -46914.068   0.26830578 
  100000    272.54336   -1010.1813    126934.15   -43549.792    3326.7779    -46876.57   0.26068833 
Loop time of 121.756 on 6 procs for 100000 steps with 4096 atoms

Performance: 354.809 ns/day, 0.068 hours/ns, 821.317 timesteps/s
98.8% CPU use with 6 MPI tasks x no OpenMP threads

MPI task timing breakdown:
Section |  min time  |  avg time  |  max time  |%varavg| %total
---------------------------------------------------------------
Pair    | 85.672     | 88.687     | 92.598     |  26.5 | 72.84
Neigh   | 5.8994     | 6.0926     | 6.446      |  10.0 |  5.00
Comm    | 19.373     | 23.622     | 26.772     |  55.7 | 19.40
Output  | 0.19182    | 0.19347    | 0.20082    |   0.7 |  0.16
Modify  | 2.295      | 2.3081     | 2.3221     |   0.6 |  1.90
Other   |            | 0.8527     |            |       |  0.70

Nlocal:        682.667 ave         703 max         665 min
Histogram: 2 0 1 0 1 0 0 0 0 2
Nghost:        1576.67 ave        1593 max        1560 min
Histogram: 1 1 0 1 0 1 0 0 0 2
Neighs:        0.00000 ave           0 max           0 min
Histogram: 6 0 0 0 0 0 0 0 0 0
FullNghs:      21417.3 ave       22048 max       20874 min
Histogram: 2 0 1 0 0 1 0 0 0 2

Total # of neighbors = 128504
Ave neighs/atom = 31.373047
Neighbor list builds = 6580
Dangerous builds = 0

undump              1
unfix               2
unfix               3
unfix               4




################################################
#######         Run Simulation         #########
################################################

reset_timestep      0
log                 log.run_${NAME}
log                 log.run_ice_275K_1000atm_mW
