LAMMPS data file via write_data, version 12 Dec 2018, timestep = 100000

800 atoms
1 atom types

-9.8019141513534080e-02 2.4916019141513765e+01 xlo xhi
-1.2252392689219960e-01 3.1145023926891604e+01 ylo yhi
-1.2252392689219960e-01 3.1145023926891604e+01 zlo zhi

Masses

1 18.015

Atoms # atomic

5 1 1.3730188996063624e+00 1.4938578659985549e+00 1.5278542497121952e+00 0 0 0
202 1 2.9156715779801390e+00 1.5364465431837722e+01 2.0483545676816239e-01 0 0 0
13 1 7.6957824882380992e+00 1.7684444931883192e+00 1.4785113394291900e+00 0 0 0
10 1 5.7726411724303404e+00 2.8839367019163067e+00 3.1088015419380515e+00 0 0 0
245 1 9.3560056880215363e+00 1.5451918882043001e+01 6.4055781034380326e+00 0 0 0
69 1 9.3299420815943765e+00 1.2470279563367717e+01 9.3554430169411251e+00 0 0 0
19 1 2.9792682842615696e+00 6.2918049166740335e+00 2.8890263543822865e+00 0 0 0
8 1 4.5559152704818020e+00 4.4883809527830962e+00 1.3416863518020530e+00 0 0 0
18 1 5.3412931203027370e-02 9.4758365414511498e+00 3.1507203693304864e+00 0 0 0
16 1 1.0603328543912170e+01 4.2885659394692608e+00 1.5169171375327313e+00 0 0 0
27 1 8.4943927457242001e+00 6.1343397886731177e+00 3.0627815786483339e+00 0 0 0
21 1 1.2043799549132579e+00 7.5014501257273487e+00 1.4294601917805854e+00 0 0 0
24 1 4.2204242161427281e+00 1.0651547967372011e+01 1.3290538362124746e+00 0 0 0
11 1 9.0501981640921283e+00 5.8716124846869056e-02 2.8195802994645569e+00 0 0 0
29 1 7.4840966607761255e+00 7.9029400916986745e+00 1.5320447172893332e+00 0 0 0
26 1 5.8445645728899578e+00 9.5704563039703689e+00 3.3437391135055856e+00 0 0 0
32 1 1.0924500163665787e+01 1.1047494850822460e+01 1.5937411866981872e+00 0 0 0
49 1 9.4774523641958339e+00 6.2102084040998429e-02 9.2754138262164751e+00 0 0 0
25 1 5.9729087301966617e+00 6.2969184626470653e+00 9.1288851196190346e-02 0 0 0
35 1 1.2689228742911454e+00 1.3684456367105746e+01 1.1404408331664528e+00 0 0 0
34 1 2.7030963434201509e+00 1.2119661965490593e+01 2.6688633071434489e+00 0 0 0
70 1 7.8155637321428149e+00 1.3882574727335497e+01 7.8132860669063344e+00 0 0 0
39 1 7.8587290840908928e+00 1.4035822778497536e+01 1.3322419265081085e+00 0 0 0
442 1 1.2332279334396741e+01 3.1650625507805974e+00 9.2073152335315598e+00 0 0 0
38 1 9.1040006318267910e+00 1.2232592139945716e+01 3.4183468642540857e+00 0 0 0
44 1 3.0012885725235625e+00 3.4282331413159732e+00 6.2478897613079436e+00 0 0 0
7 1 4.1883791011268787e+00 1.3172173247227450e+00 4.4932961636589441e+00 0 0 0
66 1 3.0848183071284714e+00 1.2295031043009153e+01 9.3194040861032157e+00 0 0 0
15 1 1.0527486445879463e+01 1.6143844203542510e+00 4.4491103111485462e+00 0 0 0
50 1 8.7603801350070647e+00 3.1403091506500287e+00 6.0562332578486808e+00 0 0 0
6 1 1.3272134462153651e+00 4.7128544046179917e+00 4.3918223235030283e+00 0 0 0
59 1 5.7346473838031740e+00 6.1713608699192335e+00 6.4359338938240640e+00 0 0 0
14 1 7.1895345687221051e+00 4.5173850823671895e+00 4.7668585628874256e+00 0 0 0
31 1 1.0356221797266114e+01 7.7159748387091485e+00 4.5116093775467263e+00 0 0 0
64 1 1.0730776156859630e+01 1.0833269299661957e+01 7.7120506708985115e+00 0 0 0
23 1 4.6212107144191856e+00 7.7410854708197157e+00 4.7121148317126771e+00 0 0 0
22 1 1.3941589700778525e+00 1.0943172774368721e+01 4.9618353798700436e+00 0 0 0
56 1 3.1438739165657990e+00 9.4674737049633837e+00 6.2494461680887898e+00 0 0 0
30 1 7.6201675828090512e+00 1.0812252314586107e+01 5.0428355710059343e+00 0 0 0
62 1 9.1872152102976141e+00 9.2410452213685588e+00 6.2772686367304056e+00 0 0 0
36 1 4.4510421253243688e+00 1.3776613438903574e+01 4.5779733476718443e+00 0 0 0
68 1 6.1086808638700774e+00 1.2530478841821457e+01 6.1366106081159071e+00 0 0 0
67 1 1.6467006492218708e+00 1.3912436992122647e+01 7.9484325541598153e+00 0 0 0
40 1 1.0764597485588860e+01 1.3815191595641135e+01 4.7571888838726970e+00 0 0 0
45 1 1.4585009752485030e+00 1.6270520694594302e+00 7.8196507473870751e+00 0 0 0
63 1 7.4646943466141797e+00 7.4666505033208157e+00 7.8605434939099394e+00 0 0 0
51 1 7.6845273448957299e+00 1.4055661148441168e+00 7.8105632174225983e+00 0 0 0
48 1 6.2910093648954293e+00 3.0360321712422644e+00 9.4609120375469296e+00 0 0 0
58 1 4.7354937611041832e+00 1.0968837901247161e+01 7.8329841465224934e+00 0 0 0
57 1 1.8042577615070805e+00 7.6236114014819298e+00 7.7323108376564766e+00 0 0 0
55 1 3.4278607405121346e+00 6.0978092109151589e+00 9.3244805164235753e+00 0 0 0
46 1 4.6712014606546504e+00 4.4536007240676705e+00 7.7684859745532577e+00 0 0 0
61 1 9.1474719130253366e+00 5.9920398097506657e+00 9.3104789313756182e+00 0 0 0
52 1 1.0588032476333575e+01 4.6763947406477708e+00 7.6816048603854492e+00 0 0 0
60 1 6.2455681686302693e+00 9.5815198258932188e+00 9.4470718216134415e+00 0 0 0
418 1 1.2332285472504820e+01 9.3711283579715090e+00 3.1420456722680301e+00 0 0 0
205 1 6.1858621390837385e+00 1.5323344389379526e+01 3.0368697962604467e+00 0 0 0
453 1 1.2127747783466843e+01 6.3394884432401986e+00 6.3073469301030363e+00 0 0 0
17 1 -5.2328800841467460e-02 5.8892143856812904e+00 9.1536651712778583e-04 0 0 0
465 1 1.2378376787307303e+01 1.2224370574727152e+01 6.1157491453594703e+00 0 0 0
244 1 6.4004700520856392e+00 1.5429493113735507e+01 9.4625039877561843e+00 0 0 0
402 1 1.2027542940127171e+01 3.2532696683869711e+00 3.2105091392180070e+00 0 0 0
417 1 1.2401648241910189e+01 5.9493189446060413e+00 3.8757753697442154e-01 0 0 0
28 1 9.4609539811644776e+00 9.3087138336795778e+00 3.0577312491310238e-02 0 0 0
4 1 2.7278148902362060e+00 3.1228131838575410e+00 -6.5328032702687722e-02 0 0 0
84 1 3.1857152160399136e+00 3.1090991462288233e+00 1.2228333770707559e+01 0 0 0
124 1 4.6604926875772605e+00 4.8062394110067741e+00 2.0163463039096598e+01 0 0 0
72 1 4.6639656742245039e+00 1.3808011874598121e+00 1.0834796954700236e+01 0 0 0
93 1 7.7470543103358853e+00 1.4024595349524440e+00 1.3979485197115784e+01 0 0 0
92 1 9.3349985681909740e+00 2.9952124373885756e+00 1.2506642503078647e+01 0 0 0
323 1 9.2205071930571627e+00 1.5277332458813206e+01 1.8547462357190117e+01 0 0 0
123 1 1.5048810619628319e+00 1.3517001935642128e+00 2.0368008451312988e+01 0 0 0
71 1 1.6424796727097424e+00 4.4210357338911859e+00 1.0587731698323207e+01 0 0 0
131 1 1.0048648494149761e+00 7.6154551782580606e+00 1.9900615450770388e+01 0 0 0
105 1 6.2131389681033875e+00 6.3767385972453425e+00 1.2513122791623964e+01 0 0 0
88 1 4.6650906938630303e+00 4.1490844873699428e+00 1.3997215231376748e+01 0 0 0
73 1 7.7116917064911723e+00 4.5703460684939055e+00 1.0852930832716279e+01 0 0 0
75 1 1.2443404325725582e+00 1.0883404498576780e+01 1.0844031131988800e+01 0 0 0
100 1 2.6591984626300258e+00 9.5888373119073691e+00 1.2620519143503861e+01 0 0 0
76 1 4.4784133869510105e+00 8.0753676396457728e+00 1.0892344115453172e+01 0 0 0
77 1 7.6365539006431380e+00 1.1194851320338465e+01 1.1130088987808586e+01 0 0 0
108 1 9.3048051724313190e+00 9.3473075870923150e+00 1.2590487319535802e+01 0 0 0
112 1 1.0943388678545885e+01 1.0684791852365398e+01 1.3946356466326174e+01 0 0 0
78 1 1.0556178431188718e+01 7.7489943109734440e+00 1.0653314930712241e+01 0 0 0
140 1 8.1549769406176011e+00 1.3987844314956810e+01 2.0176331594883226e+01 0 0 0
117 1 5.8313872231419630e+00 1.2723575344821167e+01 1.2578598112334733e+01 0 0 0
79 1 4.3411060360646418e+00 1.3937867381488822e+01 1.1039284512932323e+01 0 0 0
80 1 1.0976604038820385e+01 1.3922688691409428e+01 1.1323216727934749e+01 0 0 0
85 1 1.5828116435995363e+00 1.5111396306796840e+00 1.3808130608001420e+01 0 0 0
128 1 1.1210274461789950e+01 4.6922120458822789e+00 2.0186752992689510e+01 0 0 0
90 1 6.2313888634569201e+00 2.7201968027497405e+00 1.5869756183603148e+01 0 0 0
87 1 4.2940242812523781e+00 1.2408411415089229e+00 1.7269542930498876e+01 0 0 0
95 1 1.0579148144676378e+01 1.5863275036748996e+00 1.7251291576134314e+01 0 0 0
136 1 1.1049353898644874e+01 1.0725556005051788e+01 2.0054282692150537e+01 0 0 0
138 1 1.3201347106616714e+00 1.4102706047410146e+01 2.0058543496116755e+01 0 0 0
99 1 3.1988281352716013e+00 5.6267891287110468e+00 1.5397161202240941e+01 0 0 0
86 1 1.2689426507944277e+00 4.3963876997639977e+00 1.6851809289424967e+01 0 0 0
101 1 1.4720693135175054e+00 7.5456628187611212e+00 1.3994846558448382e+01 0 0 0
94 1 7.6033736758542085e+00 4.5484623195671006e+00 1.7297547916692729e+01 0 0 0
103 1 4.3996800396599633e+00 7.4620007244821052e+00 1.6989682469102394e+01 0 0 0
96 1 1.0686650147661839e+01 4.9059194770304266e+00 1.3620408184545346e+01 0 0 0
107 1 9.3832063097208742e+00 5.8274246264762022e+00 1.5529442838014386e+01 0 0 0
102 1 1.6510620251189365e+00 1.1110589793713491e+01 1.7354419899811973e+01 0 0 0
104 1 4.4135102715795966e+00 1.1236855936766570e+01 1.4286585222185606e+01 0 0 0
109 1 7.9158312243178646e+00 7.6366941020926316e+00 1.4054037449088703e+01 0 0 0
106 1 5.5823883849398621e+00 9.0496493162616556e+00 1.5108761720399150e+01 0 0 0
110 1 7.4772716431459072e+00 1.0770788051919983e+01 1.6454158780774822e+01 0 0 0
135 1 8.2694197835058745e+00 7.9868940640016426e+00 2.0324199866605632e+01 0 0 0
115 1 1.2029705942319768e+00 1.4020065617837835e+01 1.3654924277074047e+01 0 0 0
114 1 2.8030006096090294e+00 1.2844451091825023e+01 1.5769413752294945e+01 0 0 0
119 1 7.7132763145257099e+00 1.3937652152421709e+01 1.4285041303422409e+01 0 0 0
116 1 4.3827576613471049e+00 1.4359615994857368e+01 1.7129377429120684e+01 0 0 0
120 1 1.0850852350421080e+01 1.3691519072078266e+01 1.7179097550976209e+01 0 0 0
118 1 9.5104211379556833e+00 1.2050111328984256e+01 1.5657106952867970e+01 0 0 0
122 1 2.8491788972346992e+00 3.0311485503870470e+00 1.8587835672971842e+01 0 0 0
127 1 7.6557469983163298e+00 1.7816345271970024e+00 2.0434929990595485e+01 0 0 0
74 1 1.0772861638898515e+01 1.7421227370716574e+00 1.0907963972176486e+01 0 0 0
126 1 9.2385769346751090e+00 3.3669606440156561e+00 1.8864286932737020e+01 0 0 0
139 1 6.2156535358636793e+00 1.2543144466961090e+01 1.8335622651725224e+01 0 0 0
134 1 9.2276882888061085e+00 9.4946462225005703e+00 1.8246009459395562e+01 0 0 0
498 1 1.2273337237905331e+01 8.8674569614510474e+00 1.5571224019809719e+01 0 0 0
133 1 6.4224390222408037e+00 6.5040585222949652e+00 1.8646719493623113e+01 0 0 0
125 1 6.3859575919523186e+00 -1.1933091502460141e-01 1.8898126052891712e+01 0 0 0
111 1 1.0600017519432878e+01 7.4714230218099145e+00 1.7272231781362404e+01 0 0 0
130 1 3.1382568576165673e+00 8.9842193847313361e+00 1.8718856238963173e+01 0 0 0
481 1 1.2326951896340496e+01 1.4372635474466100e-04 1.2105535747769943e+01 0 0 0
132 1 4.6089601366320885e+00 1.0820262002257063e+01 1.9848268643827666e+01 0 0 0
121 1 8.4017576171400460e-02 -1.0340918395993101e-01 1.8690171778817671e+01 0 0 0
98 1 4.3331712807661893e-01 9.4632985559992786e+00 1.5492243492465215e+01 0 0 0
681 1 1.2300119006431574e+01 1.5393184671003272e+01 1.5624713221172732e+01 0 0 0
281 1 -1.8635973395840194e-02 1.5485087461712421e+01 1.5461981045450393e+01 0 0 0
482 1 1.2206904460393575e+01 3.0600354502499258e+00 1.5517589149928835e+01 0 0 0
82 1 -7.0574876779559759e-02 2.7889850899957658e+00 1.5431562610805429e+01 0 0 0
521 1 1.2402935054997696e+01 1.9822679165314006e-01 1.8558134201257268e+01 0 0 0
97 1 1.1194560735196291e-01 5.9294960444290084e+00 1.2283517037871258e+01 0 0 0
37 1 6.2614239884880840e+00 1.2184078165346977e+01 3.1075597475918176e+01 0 0 -1
200 1 1.0959275486795466e+01 1.3633953770393946e+01 2.9609456740461912e+01 0 0 0
145 1 5.9052951359508059e+00 3.1049099221719807e+00 2.1942053959858196e+01 0 0 0
144 1 4.8581510991628418e+00 1.2825780696076763e+00 2.3446299701991581e+01 0 0 0
183 1 4.2412471273676537e+00 7.3980170703176951e+00 2.9479762505698510e+01 0 0 0
148 1 1.0804603226374841e+01 1.8471395488972364e+00 2.3146891584943482e+01 0 0 0
187 1 9.5054105386620371e+00 6.2771725454397460e+00 2.8199957817021520e+01 0 0 0
143 1 1.5339829910658576e+00 4.3911328704556034e+00 2.3116450617339172e+01 0 0 0
150 1 3.1037163601776725e+00 6.1383943232777609e+00 2.1713212567121101e+01 0 0 0
147 1 7.7714744129947899e+00 4.6923053368183512e+00 2.3513804827874619e+01 0 0 0
154 1 9.4161937626415089e+00 6.0208631697646657e+00 2.1831678805317026e+01 0 0 0
151 1 1.5559024730761708e+00 1.0769111287434352e+01 2.2977509508265417e+01 0 0 0
171 1 9.2570198236267665e+00 2.4268472974708294e-01 2.7758677155527138e+01 0 0 0
152 1 4.6934137158818228e+00 7.7866630642515995e+00 2.3124204912600643e+01 0 0 0
153 1 6.0903903917721314e+00 9.3258729512581660e+00 2.1303471693702338e+01 0 0 0
155 1 7.8931556141162096e+00 1.0949343957298144e+01 2.3097802672195733e+01 0 0 0
156 1 1.1045117475340415e+01 7.6981861916782091e+00 2.3155278017262457e+01 0 0 0
157 1 3.1708992889572278e+00 1.2309278576467344e+01 2.1630659631571088e+01 0 0 0
158 1 4.6558043189552496e+00 1.4013463984626529e+01 2.3008906762105283e+01 0 0 0
159 1 9.6858984996019064e+00 1.2547216262427163e+01 2.1767279281591879e+01 0 0 0
160 1 1.1192872286090459e+01 1.4017773763229521e+01 2.3367591694341584e+01 0 0 0
198 1 9.3730683459581847e+00 1.2190901047085466e+01 2.7901859012387003e+01 0 0 0
164 1 3.0963342681961303e+00 3.0682375956458494e+00 2.5100934773666594e+01 0 0 0
165 1 1.4981504955680245e+00 1.2226976976689428e+00 2.6536098135521918e+01 0 0 0
173 1 7.6454761319947986e+00 2.0342645581223695e+00 2.6304808111816087e+01 0 0 0
20 1 2.6020319361702766e+00 9.1790123637788046e+00 3.0911768509947375e+01 0 0 -1
172 1 9.4041190685153850e+00 3.2287636917011291e+00 2.4938620124797506e+01 0 0 0
168 1 4.9522611942850929e+00 5.1072347884623372e+00 2.6395742754530815e+01 0 0 0
185 1 6.4583280395644715e+00 6.6344513516737509e+00 2.4643436420410826e+01 0 0 0
176 1 1.0813030813033269e+01 4.7980350524001691e+00 2.6528326402361071e+01 0 0 0
182 1 1.2181496687267970e+00 1.1045166262765719e+01 2.9387281432843697e+01 0 0 0
181 1 1.2293717950035883e+00 7.2407212603028102e+00 2.6024305776118982e+01 0 0 0
180 1 2.9703360265352003e+00 9.1652007008090450e+00 2.4756089519803083e+01 0 0 0
189 1 7.9271216730983038e+00 7.9013950905070764e+00 2.6371261117632947e+01 0 0 0
184 1 4.6266651430578563e+00 1.0940240530787447e+01 2.6136450852575233e+01 0 0 0
188 1 9.3804710554024613e+00 9.0950728187302765e+00 2.4871174962980877e+01 0 0 0
192 1 1.1086011322387632e+01 1.0635989457523213e+01 2.6406452199744173e+01 0 0 0
562 1 1.2264483984480000e+01 3.1309601475797848e+00 2.8252546945031906e+01 0 0 0
195 1 1.3153320794209862e+00 1.4057676427839271e+01 2.6441930409557653e+01 0 0 0
194 1 3.1900459408022055e+00 1.2146523334675594e+01 2.7829852547106260e+01 0 0 0
191 1 1.0982930800888102e+01 7.5723982817616573e+00 2.9987740017673556e+01 0 0 0
197 1 6.3359768975804798e+00 1.2426823877870895e+01 2.4642900859597717e+01 0 0 0
199 1 8.0046246133797894e+00 1.3944510676952158e+01 2.6388729120591464e+01 0 0 0
186 1 5.6976263774784597e+00 9.2087414008108137e+00 2.7776762283048555e+01 0 0 0
196 1 4.6069200514422732e+00 1.4039577934475989e+01 2.9694208494919280e+01 0 0 0
343 1 6.1590517069385591e+00 1.5455880323259100e+01 2.1493418539773909e+01 0 0 0
170 1 6.3506156445936082e+00 3.7072907798020669e+00 2.8175439412957257e+01 0 0 0
167 1 4.6423984441253019e+00 1.8393898597696370e+00 2.9443590155935592e+01 0 0 0
190 1 7.7077772513086407e+00 1.0516310859247470e+01 2.9311856752583420e+01 0 0 0
175 1 1.0797077589422621e+01 1.4518515274430974e+00 2.9608354459546508e+01 0 0 0
174 1 7.9466755514583056e+00 4.8341815790429159e+00 3.0074008058428980e+01 0 0 0
179 1 2.9073416762222770e+00 5.9812622856725088e+00 2.7715391160341714e+01 0 0 0
166 1 9.8473679469691477e-01 4.6069089102092331e+00 2.9489565745266063e+01 0 0 0
163 1 3.2409132880921470e+00 -1.4439733774410241e-02 2.8044142920442390e+01 0 0 0
362 1 2.9858113147242071e+00 1.5390816399565079e+01 2.4697271307928794e+01 0 0 0
146 1 9.4497045478684516e+00 1.2020376590963969e-01 2.1760869680810064e+01 0 0 0
193 1 2.1388883622923738e-02 1.2394961266704209e+01 2.4833671410857189e+01 0 0 0
142 1 3.1666102853643947e+00 -6.3621122951382933e-02 2.2097113352349087e+01 0 0 0
141 1 -5.6347165198225468e-02 3.2031458847376966e+00 2.1507650693047953e+01 0 0 0
9 1 6.1423013213239956e+00 8.3819901043266754e-02 3.0973143758865508e+01 0 0 -1
178 1 7.9104490254167104e-04 8.8783012271309580e+00 2.7767981625301442e+01 0 0 0
12 1 9.2078438644631770e+00 2.9990110674651116e+00 3.1049198392971675e+01 0 0 -1
211 1 2.9163291691140198e+00 1.8853073916496108e+01 2.5890941518516724e+00 0 0 0
204 1 4.2527167320926980e+00 1.7077205065536898e+01 1.4190933218282924e+00 0 0 0
226 1 2.5619502673997141e-01 2.8418835683585488e+01 2.7434235874914012e+00 0 0 0
208 1 1.1195430253375941e+01 1.7237861036685011e+01 1.4988462786483483e+00 0 0 0
219 1 9.4172441668042239e+00 1.8298345890026145e+01 3.3488351138390011e+00 0 0 0
270 1 1.0853446247504191e+01 2.9618749838734285e+01 7.9927623483883412e+00 0 0 0
213 1 1.3298304655378883e+00 2.0365984972621344e+01 1.1986120134876022e+00 0 0 0
264 1 4.4274606827441270e+00 2.9141467117825893e+01 7.4476586427668456e+00 0 0 0
218 1 6.6798429498148435e+00 2.1497228967595277e+01 3.1519088930070747e+00 0 0 0
221 1 7.9460278973529466e+00 1.9815368493800989e+01 1.4126790851614521e+00 0 0 0
261 1 3.2432787493666666e+00 2.4591442250062478e+01 9.0596460943565109e+00 0 0 0
229 1 1.7990245874131294e+00 2.6892609438908906e+01 1.3403887407816102e+00 0 0 0
227 1 3.0761471872580439e+00 2.4908292576755809e+01 2.7677545596789876e+00 0 0 0
266 1 6.5176704775617536e+00 2.7711354826859150e+01 8.9932232853361693e+00 0 0 0
216 1 4.9566022094279782e+00 2.3484138497383483e+01 1.5456398566395186e+00 0 0 0
237 1 7.9504604908950558e+00 2.6448372456384973e+01 1.3476178298955068e+00 0 0 0
224 1 1.1124548285444831e+01 2.3182008209912279e+01 1.3396695433223822e+00 0 0 0
235 1 9.8736642022444663e+00 2.4843752360268368e+01 2.7981403566889096e+00 0 0 0
260 1 1.9236549566129008e-01 2.7713390128382478e+01 9.4793210086299347e+00 0 0 0
263 1 1.5917117893219119e+00 2.6139663404620929e+01 7.7413107390747546e+00 0 0 0
232 1 4.8698819907699029e+00 2.9274479585520677e+01 1.1582225225985259e+00 0 0 0
234 1 6.2801103847648303e+00 2.8121460761210514e+01 2.8890776613585287e+00 0 0 0
660 1 1.2186546364269219e+01 2.7917543377596878e+01 9.3552785867359027e+00 0 0 0
240 1 1.0620538096978041e+01 2.9598776872894746e+01 1.3965517076503353e+00 0 0 0
258 1 1.1136633953797400e+01 2.3261349537271297e+01 7.5269686422007531e+00 0 0 0
212 1 3.0430485047626155e+00 2.1870759210301355e+01 1.2358081413474095e-01 0 0 0
203 1 1.7168079150385387e+00 1.6868808786086898e+01 4.1566256940870154e+00 0 0 0
3 1 3.1363657827672911e+00 3.1078581857535610e+01 2.9106006876145880e+00 0 -1 0
647 1 1.2360534835514899e+01 1.8471966507592601e+01 6.1510385713542837e+00 0 0 0
207 1 7.5810166251091502e+00 1.6559245009694447e+01 4.8787707157081392e+00 0 0 0
253 1 6.1414219564770089e+00 1.8561270440666014e+01 6.0835216806354753e+00 0 0 0
269 1 8.2692244883573487e+00 2.6414482202018650e+01 7.4664949099513285e+00 0 0 0
250 1 3.0393128494664099e+00 2.1555297972551223e+01 6.2574537050718142e+00 0 0 0
215 1 4.4689544875119385e+00 2.0100826063897699e+01 4.5096309829291004e+00 0 0 0
222 1 8.1435829050824697e+00 2.3370739784419808e+01 4.6788325589942454e+00 0 0 0
223 1 1.0903100004354229e+01 2.0122421895443825e+01 4.8434184340544215e+00 0 0 0
256 1 9.1253420740214590e+00 2.1728137421726512e+01 6.6146402777660978e+00 0 0 0
214 1 1.4723776165589775e+00 2.3218548138486987e+01 4.2752187369195900e+00 0 0 0
231 1 4.4930899252947460e+00 2.6252083425338256e+01 4.5038126651593418e+00 0 0 0
265 1 6.4554143712413747e+00 2.4944908611077395e+01 6.3014204819463879e+00 0 0 0
239 1 1.1151207299285554e+01 2.6572796630648611e+01 4.6889582510355403e+00 0 0 0
267 1 9.3190665193815754e+00 2.4747099154381239e+01 9.3265324205394080e+00 0 0 0
230 1 1.6806321008205065e+00 2.9586467421931136e+01 4.6791984996887104e+00 0 0 0
262 1 2.8008506349346978e+00 2.7846534397808902e+01 5.8735655384471226e+00 0 0 0
238 1 7.5804258160132285e+00 2.9725725662877274e+01 4.6756662554407535e+00 0 0 0
268 1 9.6760821192965096e+00 2.8216328124462944e+01 6.1083506145811706e+00 0 0 0
249 1 2.8780519455596232e+00 1.8791254881931717e+01 9.1702840358272866e+00 0 0 0
243 1 4.7044158264445715e+00 1.7048009389894823e+01 7.9254937682400364e+00 0 0 0
254 1 6.6227089869564342e+00 2.1254285766707799e+01 9.6198004012991749e+00 0 0 0
252 1 4.8222546862828937e+00 2.2886368202103661e+01 7.9432676732975143e+00 0 0 0
246 1 1.1070575341042979e+01 1.6935165946494731e+01 7.5916036813052932e+00 0 0 0
255 1 9.7499581098150969e+00 1.8528057857639688e+01 9.1076850952299324e+00 0 0 0
401 1 1.2163804900645243e+01 3.0999134848301754e+01 -9.5001251052647714e-02 0 -1 0
251 1 1.1550176764348348e+00 1.9911685299422384e+01 7.3456523572302510e+00 0 0 0
257 1 7.8266396633309965e+00 1.9615054638866770e+01 7.7640872257477014e+00 0 0 0
641 1 1.2235200471542104e+01 1.5716556839823761e+01 9.5857099663761449e+00 0 0 0
248 1 1.7903378638465672e-01 2.1731684862778565e+01 9.1170368154862835e+00 0 0 0
242 1 2.8918361597222013e+00 1.5715140601937895e+01 6.2064192975921753e+00 0 0 0
41 1 -6.7692626065975522e-02 3.0937879390386950e+01 6.2721020443533471e+00 0 -1 0
648 1 1.2296622984882418e+01 2.2018748204865908e+01 9.3998528378302062e+00 0 0 0
209 1 -2.9906301356689369e-02 1.8589241551202456e+01 1.9820257580739520e-02 0 0 0
626 1 1.2329421584337753e+01 2.7960536861693544e+01 2.9849007548708855e+00 0 0 0
43 1 2.9637271718197127e+00 3.1117926426821857e+01 9.3249040035583004e+00 0 -1 0
47 1 5.6537952107327394e+00 3.1132816426709265e+01 6.3777691081414360e+00 0 -1 0
206 1 9.3974508817045432e+00 1.5785931357633952e+01 -8.7491324453424113e-02 0 0 0
271 1 1.2078702358409195e+00 1.7007605343437348e+01 1.0786380945527155e+01 0 0 0
272 1 7.8639953129496600e+00 1.7382016572629180e+01 1.0547671059300148e+01 0 0 0
278 1 4.7199914024601215e+00 2.6454573650673886e+01 1.0683258642887914e+01 0 0 0
297 1 6.2509015039674729e+00 1.8418562922961971e+01 1.2361644737492226e+01 0 0 0
89 1 6.1821174167563493e+00 3.0962116066865104e+01 1.2320807069157222e+01 0 -1 0
284 1 4.4483208066676463e+00 1.7235050356209076e+01 1.3888726739534942e+01 0 0 0
288 1 1.0683631982795951e+01 1.6907469358699373e+01 1.3767092176221054e+01 0 0 0
310 1 1.6118159676305999e+00 2.9619723835615371e+01 1.7313106179937332e+01 0 0 0
292 1 2.7576147477431587e+00 2.1293429906360878e+01 1.1999313867256914e+01 0 0 0
301 1 7.4922558111513498e+00 1.9912557379398741e+01 1.4081224871617458e+01 0 0 0
275 1 8.1792398951708094e+00 2.3345144764186063e+01 1.1089740266936914e+01 0 0 0
300 1 9.2697790111792049e+00 2.1509991834139914e+01 1.2686950242880771e+01 0 0 0
332 1 1.0625299187294701e+01 2.3249586474322747e+01 2.0377377938450216e+01 0 0 0
277 1 1.4303173847906334e+00 2.9570885208231719e+01 1.1035515066301357e+01 0 0 0
276 1 1.0812429048657638e+01 2.0383658767420449e+01 1.0664413113182846e+01 0 0 0
313 1 6.3339890952311881e+00 2.4595873985486776e+01 1.2459070844155031e+01 0 0 0
273 1 1.6033060610886827e+00 2.3247093963001138e+01 1.0777485164437429e+01 0 0 0
280 1 1.0574700458087266e+01 2.6345123958757263e+01 1.1177107777193125e+01 0 0 0
308 1 3.1018557634966846e+00 2.7979452960544940e+01 1.2215800914219134e+01 0 0 0
274 1 4.6614889110200268e+00 1.9727967761108570e+01 1.0860155079380602e+01 0 0 0
334 1 3.4157666699870020e+00 2.8269920450826191e+01 1.8880219851930669e+01 0 0 0
324 1 1.0759480896085872e+01 1.6791120728437772e+01 2.0223148488882238e+01 0 0 0
312 1 4.5942872409764570e+00 2.9556638673787290e+01 1.3777784724046452e+01 0 0 0
316 1 8.8933324257039033e+00 2.7793319699584515e+01 1.2253927406414492e+01 0 0 0
291 1 3.3256128611118432e+00 1.8746434732865886e+01 1.5535300844758979e+01 0 0 0
335 1 1.2628888964501648e+00 2.6729077701626544e+01 2.0279809126287578e+01 0 0 0
299 1 9.1465545164929676e+00 1.8636772750724163e+01 1.5165905705733870e+01 0 0 0
293 1 1.4036412174859776e+00 2.0059598763336350e+01 1.4084051575455076e+01 0 0 0
298 1 6.0541070023913672e+00 2.1745495321271115e+01 1.5588446647485792e+01 0 0 0
296 1 4.3948396241102818e+00 2.3239737256208343e+01 1.3534849436034031e+01 0 0 0
331 1 7.5575941652862459e+00 2.0164909526990982e+01 2.0150814205833637e+01 0 0 0
303 1 1.0770746239467403e+01 2.0258903261034757e+01 1.7197107271748397e+01 0 0 0
294 1 1.3445053670657496e+00 2.3599346349375196e+01 1.7254618745365164e+01 0 0 0
309 1 1.4397397443732654e+00 2.6585284410368061e+01 1.3868857850139316e+01 0 0 0
307 1 3.1378980590036383e+00 2.4900031898685917e+01 1.5523741451598731e+01 0 0 0
302 1 7.5934168261110759e+00 2.3695955942650620e+01 1.6759965432622604e+01 0 0 0
317 1 7.6292270857471332e+00 2.6111644357083211e+01 1.4258821229820938e+01 0 0 0
311 1 4.5691778391104885e+00 2.6490404671751691e+01 1.7101471269823090e+01 0 0 0
304 1 1.0929588378992575e+01 2.3446655093920462e+01 1.3931283973576001e+01 0 0 0
319 1 1.1170204084664110e+01 2.7072519037700562e+01 1.7128278106905579e+01 0 0 0
315 1 9.6620995291739931e+00 2.5227687051095465e+01 1.5522528349704993e+01 0 0 0
337 1 6.1022694201942365e+00 2.4770820484074864e+01 1.8453818849151482e+01 0 0 0
338 1 9.0009681007384277e+00 2.8105657010074172e+01 1.9148238420821645e+01 0 0 0
314 1 6.0033083067215642e+00 2.7880575560375039e+01 1.5366110975130200e+01 0 0 0
318 1 7.6949331933530924e+00 2.9495740489479694e+01 1.7218308007764957e+01 0 0 0
320 1 1.0682846329495968e+01 2.9881954436696670e+01 1.3795316293084596e+01 0 0 0
340 1 1.1012656925488063e+01 2.9844400029092427e+01 2.0109388441670887e+01 0 0 0
283 1 1.4298381305304926e+00 1.7436564332383476e+01 1.7106692903849495e+01 0 0 0
322 1 4.2883600507178556e+00 1.7254453073334659e+01 2.0246289425853412e+01 0 0 0
327 1 1.4395240955704087e+00 2.0109180644655329e+01 2.0547948254871617e+01 0 0 0
287 1 7.8869706906689316e+00 1.6954728696271342e+01 1.6863479394692103e+01 0 0 0
329 1 6.4416042891999528e+00 1.8531914055619506e+01 1.8787960617843851e+01 0 0 0
279 1 7.6907804489673524e+00 2.9486792126556360e+01 1.0794225418601908e+01 0 0 0
83 1 2.9069272879874632e+00 3.1032719492380451e+01 1.5453479461017507e+01 0 -1 0
326 1 2.8920491065333453e+00 2.1670596937073604e+01 1.8925738128355480e+01 0 0 0
339 1 7.7068373987239047e+00 2.5903997589966796e+01 2.0395778701690595e+01 0 0 0
295 1 4.5184440861046209e+00 2.0144424042556739e+01 1.7362891344673255e+01 0 0 0
330 1 9.2159111178442892e+00 2.2229530434764442e+01 1.8526473814417301e+01 0 0 0
305 1 -9.3765839253420469e-02 2.4579037139331419e+01 1.2461086083625949e+01 0 0 0
328 1 4.3105849162704333e+00 2.3309936080863718e+01 2.0258510016490362e+01 0 0 0
81 1 1.3540913807965183e-01 3.1008378699801458e+01 1.2374928583055871e+01 0 -1 0
321 1 2.6849585650051799e+00 1.5689721837026044e+01 1.8624320949884844e+01 0 0 0
689 1 1.2285227098976423e+01 1.8705686855165734e+01 1.2384758803945441e+01 0 0 0
725 1 1.2181782556455413e+01 1.8514747868969032e+01 1.8716776927795198e+01 0 0 0
306 1 -8.6093886563886973e-02 2.8002883945462322e+01 1.5548833650311362e+01 0 0 0
282 1 3.0760601647868833e+00 1.5516045356970139e+01 1.2298353125560523e+01 0 0 0
91 1 9.1766137232468523e+00 3.1104558509422805e+01 1.5558540112033050e+01 0 -1 0
690 1 1.2325376078317438e+01 2.1785526445355700e+01 1.5510442128308107e+01 0 0 0
286 1 8.9966318977127049e+00 1.5689176414585880e+01 1.2374562041283792e+01 0 0 0
285 1 6.1559878277301738e+00 1.5784114274362700e+01 1.5665122762932091e+01 0 0 0
325 1 4.5044359221400043e-02 1.8659031222658733e+01 1.8939227890857627e+01 0 0 0
290 1 -6.3167952487731327e-02 2.1728544806117291e+01 1.5708332449922276e+01 0 0 0
733 1 1.2354483516684086e+01 2.5140729153916237e+01 1.8779420439168899e+01 0 0 0
336 1 4.8808282670326442e+00 2.9949139276276654e+01 2.0625591318936667e+01 0 0 0
342 1 1.0943338983181239e+00 1.7029793268010419e+01 2.3386533449772951e+01 0 0 0
346 1 2.7708621225933467e+00 1.8530579981632034e+01 2.2089693792906882e+01 0 0 0
344 1 7.8505466064587708e+00 1.6705538723691721e+01 2.3243213971603801e+01 0 0 0
169 1 6.3153782459683105e+00 3.1054927151219754e+01 2.5086701322097579e+01 0 -1 0
350 1 9.3153322078775087e+00 1.8449930038405814e+01 2.1746038225807649e+01 0 0 0
228 1 3.1724859481887870e+00 2.7907946678812856e+01 3.0859146241823311e+01 0 0 -1
347 1 1.4133616616910996e+00 2.3539757632119329e+01 2.3486524174222879e+01 0 0 0
348 1 4.4815478995634530e+00 2.0279055334478521e+01 2.3458957794600948e+01 0 0 0
349 1 6.1012509340212473e+00 2.1719482339810117e+01 2.1606660368151736e+01 0 0 0
351 1 7.3649290520805151e+00 2.2936474934555694e+01 2.3598807733674608e+01 0 0 0
352 1 1.1121235948613018e+01 2.0313675696115872e+01 2.3194684466983258e+01 0 0 0
354 1 2.8615330454054675e+00 2.5246867092757313e+01 2.2053573521542738e+01 0 0 0
356 1 4.3447936150834341e+00 2.6442263859794817e+01 2.3916178247664643e+01 0 0 0
358 1 9.2749939860724897e+00 2.4596759675543982e+01 2.2152727375367686e+01 0 0 0
360 1 1.0692579240501543e+01 2.6444658647614190e+01 2.3215892807491606e+01 0 0 0
355 1 1.3487693070576530e+00 2.9553147112106043e+01 2.3478809990932749e+01 0 0 0
357 1 6.5085427143942693e+00 2.7819131119615932e+01 2.1706536384983661e+01 0 0 0
359 1 7.7695558169592704e+00 2.9891524416445019e+01 2.3214054734130610e+01 0 0 0
395 1 9.0286203226255903e+00 2.4918852275432233e+01 2.7880924644054708e+01 0 0 0
364 1 4.4150416493719042e+00 1.7291247279572005e+01 2.6045700315573090e+01 0 0 0
377 1 6.0034434993816923e+00 1.8469537829707981e+01 2.4553149582004771e+01 0 0 0
368 1 1.1104359764198076e+01 1.7239974621306278e+01 2.6720152410878082e+01 0 0 0
217 1 5.5398053331888120e+00 1.8539721972313881e+01 3.0992069510044136e+01 0 0 -1
372 1 2.8088074281987128e+00 2.1777316808532078e+01 2.4823438664896340e+01 0 0 0
373 1 9.3225783996933664e-01 2.0237763842509356e+01 2.6135376935029253e+01 0 0 0
381 1 7.6376102446250069e+00 2.0113947044019877e+01 2.6180444679134332e+01 0 0 0
380 1 9.3272886393225356e+00 2.1611920823630449e+01 2.4913330040677323e+01 0 0 0
384 1 1.0744733781887806e+01 2.3305957487776588e+01 2.6429061594378020e+01 0 0 0
389 1 1.4188580458856270e+00 2.6646608316069663e+01 2.6840972216028923e+01 0 0 0
386 1 -2.6256791771863838e-02 2.8400207605329822e+01 2.8181703683995938e+01 0 0 0
376 1 4.4092323786201728e+00 2.3364025451525762e+01 2.6418717417650711e+01 0 0 0