
# Create simulation box and atoms
lattice		    sc 1
Lattice spacing in x,y,z = 1 1 1
region 		    all block 0 50 0 50 0 50 units box
create_box 	    1 all
Created orthogonal box = (0 0 0) to (50 50 50)
  1 by 1 by 1 MPI processor grid

create_atoms	1 random 4096 83782 all
Created 4096 atoms
  Time spent = 0.000322104 secs

mass		    1 18.15

# Define potential

pair_style 	    sw
pair_coeff	    * * mW_real.sw mW
Reading potential file mW_real.sw with DATE: 2019-02-27

# Run minimization and output files

minimize 	    1.0e-8 1.0e-8 10000 1000
WARNING: Using 'neigh_modify every 1 delay 0 check yes' setting during minimization (../min.cpp:168)
Neighbor list info ...
  update every 1 steps, delay 0 steps, check yes
  max neighbors/atom: 2000, page size: 100000
  master list distance cutoff = 6.3065
  ghost atom cutoff = 6.3065
  binsize = 3.15325, bins = 16 16 16
  1 neighbor lists, perpetual/occasional/extra = 1 0 0
  (1) pair sw, perpetual
      attributes: full, newton on
      pair build: full/bin/atomonly
      stencil: full/bin/3d
      bin: standard
Per MPI rank memory allocation (min/avg/max) = 4.755 | 4.755 | 4.755 Mbytes
Step Temp E_pair E_mol TotEng Press 
       0            0    3558105.7            0    3558105.7    2737058.2 
     707            0   -46155.643            0   -46155.643   -1096.0065 
Loop time of 14.3868 on 1 procs for 707 steps with 4096 atoms

100.0% CPU use with 1 MPI tasks x no OpenMP threads

Minimization stats:
  Stopping criterion = max force evaluations
  Energy initial, next-to-last, final = 
         3558105.72845     -46155.2421483     -46155.6426531
  Force two-norm initial, final = 3.20802e+07 5.56243
  Force max component initial, final = 1.17575e+07 2.03557
  Final line search alpha, max atom move = 0.0597483 0.121622
  Iterations, force evaluations = 707 1000

MPI task timing breakdown:
Section |  min time  |  avg time  |  max time  |%varavg| %total
---------------------------------------------------------------
Pair    | 14.057     | 14.057     | 14.057     |   0.0 | 97.70
Neigh   | 0.23695    | 0.23695    | 0.23695    |   0.0 |  1.65
Comm    | 0.017748   | 0.017748   | 0.017748   |   0.0 |  0.12
Output  | 0          | 0          | 0          |   0.0 |  0.00
Modify  | 0          | 0          | 0          |   0.0 |  0.00
Other   |            | 0.07552    |            |       |  0.52

Nlocal:    4096 ave 4096 max 4096 min
Histogram: 1 0 0 0 0 0 0 0 0 0
Nghost:    3975 ave 3975 max 3975 min
Histogram: 1 0 0 0 0 0 0 0 0 0
Neighs:    0 ave 0 max 0 min
Histogram: 1 0 0 0 0 0 0 0 0 0
FullNghs:  132648 ave 132648 max 132648 min
Histogram: 1 0 0 0 0 0 0 0 0 0

Total # of neighbors = 132648
Ave neighs/atom = 32.3848
Neighbor list builds = 40
Dangerous builds = 0
write_restart	min.${NAME}.rst
write_restart	min.liquid_msd.rst
write_data      min.${NAME}.data
write_data      min.liquid_msd.data

# Equilibration of molecular water

# Add velocity/set timestep

velocity	    all create ${TEMP} 120598 rot yes dist gaussian
velocity	    all create 300 120598 rot yes dist gaussian
timestep	    5.0

# Define output
compute			1 all msd

thermo	    	50
thermo_style	custom step temp press vol etotal ke pe c_1[4]

# Neighbor lists

neigh_modify    delay 0 every 1 check yes

# Set fixes

fix             1 all momentum 10 linear 1 1 1 rescale
fix             2 all nve
fix             3 all temp/csvr ${TEMP} ${TEMP} 500.0 928347
fix             3 all temp/csvr 300 ${TEMP} 500.0 928347
fix             3 all temp/csvr 300 300 500.0 928347
fix             4 all press/berendsen iso ${PRES} ${PRES} 1000.0 modulus 20000
fix             4 all press/berendsen iso 1 ${PRES} 1000.0 modulus 20000
fix             4 all press/berendsen iso 1 1 1000.0 modulus 20000

# Run 1 ns equilibration

#dump		    1 all xtc 2000 eq.${NAME}-p1t${TEMP}.xtc
dump		    1 all atom 1000 eq.${NAME}-p1t${TEMP}.dump
dump		    1 all atom 1000 eq.liquid_msd-p1t${TEMP}.dump
dump		    1 all atom 1000 eq.liquid_msd-p1t300.dump

reset_timestep  0

run	            200000
Per MPI rank memory allocation (min/avg/max) = 5.162 | 5.162 | 5.162 Mbytes
Step Temp Press Volume TotEng KinEng PotEng c_1[4] 
       0          300      243.153       125000   -42493.718    3661.9251   -46155.643            0 
      50    173.99426   -136.50459    125593.21   -41613.203    2123.8466    -43737.05   0.30386736 
     100    201.86717    34.559261    125593.22   -40970.895    2464.0748    -43434.97   0.52050373 
     150    220.34228   -147.75808    125429.58    -40443.95    2689.5897    -43133.54   0.78290955 
     200    233.42853   -175.86856    125200.84    -40031.06    2849.3261   -42880.386    1.0678411 
     250    245.03679   -194.36775    125081.41   -39714.433    2991.0212   -42705.455    1.3802918 
     300    250.63079    -33.54639    124857.06   -39389.233     3059.304   -42448.537    1.7554395 
     350    262.25693   -61.761823    124637.35   -39175.293    3201.2175   -42376.511    2.1798079 
     400    265.67421   -405.04364    124341.42   -38970.043    3242.9303   -42212.973    2.6685302 
     450    271.81425   -70.286376    124082.57   -38758.226    3317.8782   -42076.104    3.2016248 
     500    275.37263   -168.31169    124111.18   -38606.771    3361.3131   -41968.084     3.800995 
     550     285.4258   -201.81509    124059.83   -38387.992    3484.0264   -41872.019    4.4234923 
     600    284.63836   -64.619323    124035.92   -38235.676    3474.4145   -41710.091    5.0568651 
     650    288.28656   -237.17143    123846.96   -38165.187     3518.946   -41684.133    5.7472447 
     700     285.4441   -61.409878    123892.75   -38087.293    3484.2498   -41571.543     6.499593 
     750    284.98001    112.04652    123767.66   -38008.682    3478.5849   -41487.267    7.2362919 
     800    288.29271   -19.903539    123841.68   -37870.013    3519.0211   -41389.034    7.9810917 
     850    285.85254   -207.08717    123513.88   -37835.945    3489.2354    -41325.18    8.7610147 
     900    295.20409   -21.522509    123385.77   -37753.882    3603.3843   -41357.266    9.5808935 
     950    292.59107    -134.9115     123244.7   -37770.419    3571.4886   -41341.908     10.45623 
    1000    297.80803    8.3710826    123141.93   -37773.041     3635.169    -41408.21    11.404722 
    1050    295.86914     37.65739    123191.06   -37749.318    3611.5021    -41360.82    12.404066 
    1100    296.74816   -172.60212    123131.65   -37670.005    3622.2318   -41292.237    13.306514 
    1150    295.41954    28.604342    123284.06    -37697.57    3606.0141   -41303.584    14.211857 
    1200     297.8543   -212.91062    123220.31   -37617.619    3635.7338   -41253.353    15.143158 
    1250    299.28557    75.415286    123113.55   -37631.409    3653.2045   -41284.613    16.153274 
    1300    304.08993   -154.07883    123258.86   -37554.551    3711.8486   -41266.399    17.157404 
    1350    294.49801    90.152424    123377.73   -37632.662    3594.7655   -41227.427    18.149604 
    1400    300.60697   -71.698083     123144.8   -37614.888     3669.334   -41284.222    19.113467 
    1450    293.39951   -166.88204    123072.74   -37671.847    3581.3569   -41253.203    19.903701 
    1500    300.21319    80.774224    123090.51   -37643.497    3664.5275   -41308.024    20.903743 
    1550    303.48437    138.23791    123120.22   -37593.207    3704.4568   -41297.664    21.974827 
    1600    296.98356   -185.44195    123027.45   -37589.217    3625.1053   -41214.322    22.980403 
    1650    298.72827   -174.83906    122773.58   -37554.142    3646.4019   -41200.544     23.76454 
    1700    298.06733    186.10215    122711.27   -37580.287    3638.3342   -41218.622    24.554513 
    1750    301.72194    -180.3401    122789.06   -37529.772    3682.9439   -41212.715      25.4113 
    1800     299.9025   -244.88837    122657.07   -37528.865     3660.735     -41189.6    26.324702 
    1850    307.11451    40.251913    122558.15   -37511.411    3748.7678   -41260.179    27.079662 
    1900    304.70857    36.938049    122786.86   -37470.677    3719.3999   -41190.077    27.920494 
    1950    303.99648   -5.0213717    122798.82   -37454.185    3710.7078   -41164.893    29.055026 
    2000     306.5776    151.62803    123021.59   -37434.225    3742.2141   -41176.439    30.272324 
    2050    296.17379   -15.322583    123055.24   -37564.191    3615.2208   -41179.412    31.359159 
    2100    304.17806    11.536636    122958.43   -37578.757    3712.9243   -41291.681    32.184944 
    2150    296.79391   -10.170342    122889.83   -37557.418    3622.7902   -41180.208     32.92025 
    2200    302.38575   -56.941276    122793.47   -37531.543    3691.0466    -41222.59    33.652855 
    2250    307.41846    157.79604     122843.5   -37501.425     3752.478   -41253.903    34.536289 
    2300    305.42869   -97.596465    122924.23   -37479.428      3728.19   -41207.618    35.439208 
    2350     303.4992   -97.979969    122847.14   -37500.824    3704.6378   -41205.462    36.286048 
    2400    301.10916    40.081046     122876.8   -37517.201     3675.464   -41192.665    37.282328 
    2450    299.88281    46.075117    122944.35   -37502.812    3660.4947   -41163.306    38.321404 
    2500    297.84897   -189.49039    123050.84   -37528.451    3635.6688    -41164.12     39.34382 
    2550    304.05146    116.55955    122880.29   -37503.674    3711.3789   -41215.053    40.362259 
    2600    298.34355    134.90951    123016.29   -37565.043    3641.7058   -41206.749    41.570263 
    2650    298.61882    65.003372    123097.09   -37498.065    3645.0659   -41143.131     42.46015 
    2700    296.58391   -272.37699    122969.07   -37560.101     3620.227   -41180.328    43.275632 
    2750    301.22913    -250.1796    122821.71   -37514.857    3676.9284   -41191.786    44.390396 
    2800    300.88314    23.561391    122810.96     -37453.9    3672.7051   -41126.605    45.499246 
    2850    303.39891   -30.532073    122876.62   -37417.664    3703.4137   -41121.077    46.248942 
    2900    305.94291   -298.88142    122804.35   -37457.359    3734.4668   -41191.826    47.146883 
    2950    295.95939    183.73998    122571.57   -37482.152    3612.6038   -41094.756    48.229037 
    3000    306.15702    30.690283    122563.89   -37511.887    3737.0803   -41248.967    49.384898 
    3050    301.47217   -68.250569    122575.88   -37511.559    3679.8951   -41191.454    50.487304 
    3100     303.3732    23.736319    122818.98   -37495.377    3703.0998   -41198.476    51.543877 
    3150    297.77942    162.37206    122877.79   -37489.466    3634.8198   -41124.286      52.3834 
    3200    295.99082    11.826769    122913.38   -37577.367    3612.9874   -41190.355    53.181226 
    3250    298.07039   -3.5459147    122757.37   -37684.044    3638.3716   -41322.415    54.104414 
    3300    293.88009   -10.506276    122784.24   -37677.057    3587.2229    -41264.28    55.069388 
    3350    299.56941   -111.22354    122757.86   -37648.248    3656.6691   -41304.918    55.972696 
    3400    301.26239   -74.661353    122755.35   -37620.707    3677.3344   -41298.042    57.028458 
    3450    300.99384   -88.389019    122852.15   -37587.129    3674.0563   -41261.185    58.147756 
    3500    307.77632    15.424152    122937.07   -37609.555    3756.8461   -41366.401    58.960558 
    3550    300.37557    43.740595    123059.54   -37593.469    3666.5096   -41259.978    59.727422 
    3600     301.3633   -35.172567    123063.24   -37608.893    3678.5662    -41287.46    60.688326 
    3650    294.24268   -91.823825    123131.35   -37600.438    3591.6489   -41192.087     61.64115 
    3700    303.16894   -124.92029    123116.68   -37551.486    3700.6065   -41252.092    62.580725 
    3750    301.69648   -50.860874    123077.78   -37535.372    3682.6331   -41218.005    63.379185 
    3800    301.39194   -151.01072    123033.31   -37538.424    3678.9157    -41217.34     64.29426 
    3850    303.55712    170.19205    123031.91   -37503.046    3705.3448   -41208.391    65.200632 
    3900    302.19362   -213.80272    122904.52   -37534.293    3688.7013   -41222.995    66.143837 
    3950    299.96379    23.357557    122895.95   -37565.247    3661.4831    -41226.73    66.986428 
    4000    301.72873    154.28176    122867.33   -37574.608    3683.0267   -41257.635     68.08785 
    4050    294.81535   -85.396543    122906.83   -37629.471    3598.6391    -41228.11    68.933595 
    4100     300.7992   -10.640083    122725.33   -37586.945    3671.6806   -41258.626    69.664963 
    4150    302.63498    182.44405    122930.67    -37553.48    3694.0889   -41247.569    70.909299 
    4200    302.47978    12.538107    122994.43   -37569.665    3692.1944    -41261.86    72.014187 
    4250    295.56421     72.69758    123121.94   -37638.091    3607.7801   -41245.871    73.189692 
    4300    293.49104    17.589679    123075.55   -37703.082     3582.474   -41285.556    74.114162 
    4350    299.66245    22.696698     123166.6   -37558.302    3657.8049   -41216.107    75.348846 
    4400    301.67803   -71.326756    123262.44   -37574.324    3682.4079   -41256.732    76.500299 
    4450    298.90822    48.023673     123431.3   -37607.264    3648.5984   -41255.862    77.559144 
    4500    294.12876   -355.40616    123228.43   -37630.812    3590.2583    -41221.07     78.49316 
    4550    290.70324   -204.20709    122994.72   -37656.622     3548.445   -41205.067     79.29342 
    4600    293.60143    171.33622    122970.84   -37654.267    3583.8215   -41238.088    80.100293 
    4650    300.10058    161.95431    122958.38   -37623.382    3663.1529   -41286.535    81.157466 
    4700    303.35879   -186.33688    122922.53   -37569.135    3702.9239   -41272.059    82.152108 
    4750    305.04698   -46.198341    122791.35   -37515.402    3723.5307   -41238.933    83.112838 
    4800    304.06669   -123.32997    122828.24   -37490.973    3711.5649   -41202.538    83.988514 
    4850    304.06727    115.22838    122815.95   -37525.633     3711.572   -41237.205    85.163663 
    4900    303.10755    59.278638    122933.39   -37466.698    3699.8572   -41166.555    86.307961 
    4950    304.29979   -16.928251    122947.43   -37484.882    3714.4102   -41199.293    87.271335 
    5000    300.93951   -18.278457    122862.48   -37589.043    3673.3932   -41262.436    88.356662 
    5050    300.88175    111.27949    122952.77   -37548.083    3672.6882   -41220.772    89.485677 
    5100    299.40596   -187.77473    122842.76   -37503.538    3654.6741   -41158.212    90.416566 
    5150    307.06681   0.91191458    122799.74   -37475.226    3748.1856   -41223.412    91.581887 
    5200    301.15932   -122.42219     122741.5    -37574.23    3676.0763   -41250.306    92.073755 
    5250    294.92824    47.768674    122719.59   -37654.736    3600.0171   -41254.753    92.687314 
    5300    298.66847   -8.7576366    122765.42   -37658.804    3645.6719   -41304.476    93.886439 
    5350    294.94249    26.511054    122682.89   -37709.123    3600.1911   -41309.314    95.020741 
    5400    295.28738   -101.49964    122664.91   -37643.784    3604.4009   -41248.185    95.878766 
    5450    296.57674    155.00131     122807.6   -37633.445    3620.1394   -41253.585    97.072262 
    5500    304.08238   -210.18138    122731.48   -37625.982    3711.7564   -41337.738    98.087888 
    5550    293.85832    86.647769    122716.97   -37714.233    3586.9572    -41301.19    99.097419 
    5600    295.12233    260.87755    122772.49   -37672.887    3602.3863   -41275.273    100.06155 
    5650    299.31257   -88.081006    122758.78   -37664.025    3653.5341   -41317.559    100.97401 
    5700      295.751   -60.627635    122761.32   -37647.911    3610.0601   -41257.971    102.08478 
    5750    295.81165    32.209036    122733.41   -37644.088    3610.8004   -41254.888    103.28437 
    5800    301.95181   -52.476213    122628.22   -37595.639    3685.7497   -41281.388     104.4165 
    5850    296.79487   -34.209613    122336.17   -37655.621    3622.8021   -41278.423    105.40075 
    5900    294.65245    51.093907     122403.2   -37652.401    3596.6507   -41249.052    106.29801 
    5950    293.10255    270.10551    122428.92     -37667.9     3577.732   -41245.632    107.33649 
    6000    299.50685    139.01335    122615.02   -37617.451    3655.9056   -41273.356     108.3253 
    6050     292.8211    61.371668    122532.07   -37712.751    3574.2965   -41287.048    109.22311 
    6100    299.00843   -289.68816    122458.17   -37694.738    3649.8217   -41344.559    110.04854 
    6150      295.293    58.377508    122364.63   -37701.821    3604.4696   -41306.291    111.03014 
    6200    296.58876    60.949534    122482.82   -37683.344    3620.2861    -41303.63    111.82386 
    6250    302.56195    17.862371    122632.01   -37589.592    3693.1974   -41282.789    112.67467 
    6300    300.93044   -159.24663    122803.74   -37565.319    3673.2824   -41238.602    114.06077 
    6350    294.67691     -238.383    122704.95   -37598.902    3596.9493   -41195.851    115.19928 
    6400    294.24874    382.30319    122729.36   -37608.329    3591.7228   -41200.052      116.119 
    6450    293.06401    117.66541    122734.72   -37665.675    3577.2615   -41242.937    117.05173 
    6500    296.09483    93.157665    122756.85   -37639.338     3614.257   -41253.595    118.45653 
    6550    289.76492   -77.106644    122718.28   -37690.665    3536.9915   -41227.657    119.26095 
    6600    297.92298    206.18516    122826.98   -37631.571    3636.5722   -41268.143    120.54623 
    6650     296.3701    102.01515    122930.56   -37643.805     3617.617   -41261.422    121.83783 
    6700    293.51608   0.44945096    123007.83   -37682.652    3582.7798   -41265.432       122.57 
    6750    296.73936    -75.32977    122957.51   -37692.268    3622.1244   -41314.392    123.92672 
    6800    298.46374   -81.865565    122869.79   -37650.388    3643.1729   -41293.561    125.08965 
    6850    300.90687   -124.38218    122777.74   -37603.248    3672.9947   -41276.243    125.90679 
    6900    299.34495    69.107779    122744.38   -37573.787    3653.9293   -41227.716    126.80319 
    6950    293.16592   -139.87383     122879.8   -37616.418    3578.5055   -41194.924    127.75419 
    7000    301.09275    13.956206    123014.41   -37575.926    3675.2637    -41251.19    128.83284 
    7050    300.47912   -177.14923    122984.56   -37603.664    3667.7734   -41271.437    129.96318 
    7100    296.96364   -99.038583    122690.33   -37588.881     3624.862   -41213.743    130.57415 
    7150    299.84814    132.04859    122507.77   -37632.033    3660.0715   -41292.104    131.18132 
    7200    296.51878   -29.932013    122460.07   -37678.394    3619.4319   -41297.826    132.21318 
    7250    294.11181   -19.550416    122571.67   -37746.503    3590.0514   -41336.555    132.82047 
    7300     294.6349   -6.8795941    122434.19   -37733.645    3596.4365   -41330.082    133.70597 
    7350    303.47763    17.574961    122537.49   -37675.083    3704.3746   -41379.457    134.77187 
    7400    299.49833   -103.38063    122496.31   -37638.546    3655.8016   -41294.348    135.26793 
    7450     297.1812    95.979471    122617.23   -37576.739    3627.5178   -41204.256     136.0505 
    7500    301.45971   -62.750168    122685.21   -37573.754    3679.7429   -41253.497     136.9534 
    7550    302.17263    46.693636     122715.4   -37624.332    3688.4452   -41312.778     138.3793 
    7600    300.62409    5.1303458    122644.86   -37550.698     3669.543   -41220.241    139.52696 
    7650    302.62137    121.87917    122830.13   -37561.601    3693.9227   -41255.523    140.70511 
    7700    297.70952   -123.09588    122730.68   -37631.917    3633.9665   -41265.883    141.98565 
    7750    299.22286    54.036967    122625.33   -37623.873     3652.439   -41276.312    143.06912 
    7800    294.43708    62.411398    122821.61   -37668.612    3594.0218   -41262.634    144.04186 
    7850    296.75195    70.416714    122962.67   -37619.591    3622.2781   -41241.869    145.18315 
    7900    299.78635    11.152878     122940.6   -37590.967    3659.3172   -41250.284    146.24714 
    7950    295.12814   -68.591006    122968.95   -37553.843    3602.4572     -41156.3    147.40291 
    8000    304.35809   -19.193022    123065.26   -37498.821    3715.1218   -41213.942    148.70825 
    8050    300.35897   -65.156132    123165.26   -37526.427    3666.3069   -41192.734    150.12956 
    8100    303.13112   -97.943038    123080.79   -37466.652    3700.1449   -41166.797    151.51075 
    8150    302.99033     119.5429    122986.87   -37529.256    3698.4263   -41227.682     152.5741 
    8200    304.64762   -68.474688    123083.97   -37484.866     3718.656   -41203.522    153.67801 
    8250    300.16871   -282.97148     123001.1   -37509.726    3663.9845    -41173.71    154.80298 
    8300    298.10406   -157.04851    122860.83   -37457.248    3638.7826    -41096.03    156.03358 
    8350    305.07211   -28.457233    122895.78   -37399.459    3723.8375   -41123.296    156.83564 
    8400    303.15564    46.073268    122904.89   -37434.866    3700.4443    -41135.31    158.34298 
    8450    307.01435   -199.75237    122858.13    -37504.68    3747.5452   -41252.225    159.65799 
    8500    301.54472   -322.76033    122749.99   -37527.939    3680.7807    -41208.72     160.4212 
    8550    301.67122   -27.103243    122556.03   -37552.529    3682.3248   -41234.854    161.05641 
    8600    299.23505   -168.74415    122705.98   -37539.383    3652.5879   -41191.971    162.17401 
    8650    303.96447   -50.906765    122724.14   -37503.488    3710.3171   -41213.805    162.65921 
    8700    302.72419    28.353662    122684.23   -37515.324    3695.1778   -41210.502    163.58408 
    8750     300.3748   -46.415337    122818.93   -37549.913    3666.5001   -41216.413    164.77848 
    8800    300.03449    15.903909    122778.18   -37541.506    3662.3462   -41203.852    165.77108 
    8850    298.63354    49.233296    122740.32   -37588.057    3645.2456   -41233.303    166.39546 
    8900    300.80361   -54.424184    122699.77   -37614.153    3671.7343   -41285.888    167.00531 
    8950    298.19147   -40.197898    122678.69   -37628.968    3639.8495   -41268.817    167.79744 
    9000    300.16701    111.88388    122835.07   -37547.073    3663.9638   -41211.037    169.12412 
    9050    300.29414      108.248     122975.7   -37580.155    3665.5155   -41245.671     170.1477 
    9100     303.1283   -213.48448    123155.06   -37597.364    3700.1105   -41297.474    171.46311 
    9150    300.67429    38.375399    123031.13   -37545.467    3670.1558   -41215.622    172.30694 
    9200    306.75169    206.54555    122958.13   -37518.076    3744.3391   -41262.415    173.13201 
    9250    298.46192   -90.960507    123015.44   -37574.627    3643.1508   -41217.778    174.29907 
    9300    296.47163   -109.41616    122850.07   -37635.816    3618.8564   -41254.672    174.90757 
    9350    296.08609   -65.989573    122935.08   -37625.847    3614.1504   -41239.998     175.9534 
    9400    298.77094   -60.772766    122892.73   -37593.553    3646.9227   -41240.476     176.8814 
    9450    302.07057   -59.254701    122831.88   -37602.453    3687.1994   -41289.652    178.19057 
    9500    298.55279   -137.70631    122838.54   -37638.075    3644.2599   -41282.335    179.51644 
    9550     294.8065   -48.664711    122901.52   -37627.385    3598.5311   -41225.916    180.69282 
    9600    294.52569    66.919944    122995.07   -37621.987    3595.1034    -41217.09    181.87765 
    9650    302.10909   -8.0146899    123121.27   -37544.922    3687.6695   -41232.591    182.92346 
    9700    303.44958   -66.579399    123056.61   -37493.692    3704.0322   -41197.724    183.63167 
    9750    303.78268   -27.546069    122953.47   -37484.671    3708.0982   -41192.769    184.64682 
    9800    303.35317    22.680902    123108.11   -37455.081    3702.8554   -41157.936    185.73684 
    9850     306.2067   -238.67434    123110.87   -37463.506    3737.6867   -41201.193    186.81366 
    9900    303.00414    76.975698    122871.05    -37472.46    3698.5949   -41171.055    187.64831 
    9950    300.02485    11.458908    122868.19   -37464.505    3662.2285   -41126.734    188.31872 
   10000    304.87656   -2.6612844    122906.24   -37532.411    3721.4504   -41253.861    189.24324 
   10050    303.14143    137.38054       122979   -37508.318    3700.2708   -41208.589    190.61848 
   10100    298.59307    31.765281    123078.58   -37495.237    3644.7516   -41139.988    192.01918 
   10150    309.47094   -14.170234    122974.28   -37448.395    3777.5313   -41225.927    193.56637 
   10200    302.78904   -173.21296    122938.37   -37478.692    3695.9693   -41174.661    195.25126 
   10250    300.42933    213.48486    122945.34   -37491.575    3667.1657   -41158.741    196.47673 
   10300    302.16387    7.2187163     123074.2   -37475.275    3688.3383   -41163.613    197.72697 
   10350    301.46036   -33.827956    123010.43   -37447.629    3679.7509    -41127.38    199.14847 
   10400     303.8107    249.56398    123270.96   -37432.997    3708.4401   -41141.437    200.63571 
   10450     295.4557    92.495646    123382.88   -37501.593    3606.4555   -41108.048     201.5245 
   10500    303.62526   -151.97694    123319.17   -37492.058    3706.1766   -41198.235    202.18236 
   10550    298.01851   -47.277325    123224.08   -37478.296    3637.7383   -41116.034    203.17751 
   10600    301.92257    26.008349    122977.22   -37521.883    3685.3929   -41207.275    203.98214 
   10650    302.36044   -155.70625     122856.2   -37557.668    3690.7376   -41248.406     204.9797 
   10700    301.97253   -68.362237    122914.91   -37584.597    3686.0027     -41270.6    206.49888 
   10750    300.34269   -93.509898    122945.07   -37596.336    3666.1082   -41262.444    207.96083 
   10800    290.03169   -153.57805    122791.19   -37704.024    3540.2478   -41244.272    208.95271 
   10850    296.92677   -214.96569    122671.48   -37703.541    3624.4121   -41327.953    209.98766 
   10900    294.56888    -40.24851    122591.36   -37697.636    3595.6307   -41293.267    210.90682 
   10950    294.86094   -70.265245    122612.52   -37718.151    3599.1956   -41317.346     212.0476 
   11000    294.96241   -66.686657    122658.54   -37704.557    3600.4342   -41304.991    213.04558 
   11050    300.76906   -124.54673    122647.19   -37625.069    3671.3127   -41296.381    214.15384 
   11100    295.60426    10.915908    122618.61   -37620.217    3608.2689   -41228.486     214.9311 
   11150    299.51824   -10.977745     122587.5   -37671.492    3656.0446   -41327.537    216.14506 
   11200    296.32627     73.41214    122631.83   -37738.309    3617.0821   -41355.391    217.54167 
   11250     295.8482    26.897713     122694.6   -37725.344    3611.2466    -41336.59    219.05215 
   11300    295.62297    31.021342    122669.98   -37669.629    3608.4973   -41278.126    220.45538 
   11350     301.2312   -284.23345    122607.57   -37695.609    3676.9537   -41372.563    221.15586 
   11400     294.7045    97.900308    122602.99   -37645.486     3597.286   -41242.772    222.03488 
   11450     297.5769    206.09743    122750.26   -37609.355    3632.3478   -41241.703    222.91329 
   11500    300.50015   -188.91652    122858.56   -37529.502    3668.0302   -41197.532    223.85137 
   11550    300.01566    161.92172    122724.44   -37452.184    3662.1162     -41114.3    224.73614 
   11600     300.9948     231.8355    122795.27   -37527.357    3674.0681   -41201.425    225.44913 
   11650    310.35953   -91.653536    122719.91   -37440.795    3788.3778   -41229.173     226.1117 
   11700    306.80473     -35.6532    122695.28   -37402.144    3744.9865   -41147.131    227.34754 
   11750     303.7843    179.88945    122971.53   -37394.961    3708.1179   -41103.079    228.83161 
   11800    305.33027    48.730884    123038.36   -37441.744    3726.9886   -41168.732    229.86261 
   11850    305.92793  -0.88311237    123037.73   -37461.898    3734.2839   -41196.182    230.66728 
   11900    303.70635   -88.574389    123053.86   -37491.082    3707.1665   -41198.249    231.59957 
   11950    299.06813    107.14646    123138.88   -37459.507    3650.5504   -41110.058    232.61487 
   12000    304.72278   -6.7178314    123325.44   -37409.286    3719.5734   -41128.859    233.47327 
   12050    303.84865   -119.01907       123294   -37462.269    3708.9034   -41171.173    234.24061 
   12100    305.41829   -86.662069    123114.43    -37489.57    3728.0631   -41217.633    234.92152 
   12150    304.83794   -81.403388    123068.43   -37497.221     3720.979     -41218.2    235.20998 
   12200    298.61227   -57.175528     122927.9   -37484.391    3644.9859   -41129.377    235.62571 
   12250    300.95368   -145.43994    122696.43   -37502.008    3673.5661   -41175.574    236.16678 
   12300    307.84295   -66.732021    122693.09   -37551.254    3757.6595   -41308.913    236.95344 
   12350    303.37875    32.623242    122586.31   -37582.894    3703.1676   -41286.062    237.65317 
   12400     303.2313   -87.525224    122597.99   -37538.625    3701.3677   -41239.993    238.70747 
   12450    300.14151    42.994936    122553.25   -37558.656    3663.6525   -41222.308    239.27301 
   12500    300.79256    131.45712    122675.24   -37487.137    3671.5995   -41158.737    239.98753 
   12550    299.77113    80.994985    122757.47   -37440.993    3659.1314   -41100.124    240.93989 
   12600    307.75056   -111.83851    122888.66   -37470.125    3756.5317   -41226.657    241.97949 
   12650    305.33645   -374.16654    122690.99   -37495.274    3727.0641   -41222.338     242.2943 
   12700    299.36009    115.86171     122663.8   -37490.802    3654.1142   -41144.916    243.07515 
   12750    302.26534    123.38907    122762.26   -37498.293    3689.5768   -41187.869    244.21513 
   12800    301.96453   -48.959599    122643.55   -37531.245     3685.905    -41217.15    244.91186 
   12850    299.43762    268.28592     122773.2   -37531.971    3655.0605   -41187.032    245.85538 
   12900      298.227     11.18176    122733.68   -37577.241    3640.2832   -41217.524    246.71659 
   12950    298.16027    303.46666    122815.11   -37570.418    3639.4686   -41209.886    247.96208 
   13000    300.65275    174.76845    123053.95   -37586.015    3669.8928   -41255.908    249.25498 
   13050    298.17288   -17.944341    123091.92   -37589.387    3639.6226    -41229.01    250.33159 
   13100    301.80978   -47.039981    123008.07   -37607.952     3684.016   -41291.968    251.03959 
   13150    300.31116     22.08181    122885.48   -37664.144    3665.7233   -41329.867     251.8442 
   13200    294.37951    52.175196    122879.57   -37662.383    3593.3191   -41255.702    252.85759 
   13250    292.83112   -12.866396    122977.34    -37638.56    3574.4188   -41212.979    254.26249 
   13300    295.91195    -19.20197    122820.46    -37700.91    3612.0247   -41312.935    255.62381 
   13350    295.70562   -128.11698    122727.08   -37706.385    3609.5062   -41315.892    256.89405 
   13400    287.64681   -28.018982    122647.71   -37774.439     3511.137   -41285.576    258.49988 
   13450    298.77655    80.374618    122689.94   -37674.753    3646.9912   -41321.744    259.66269 
   13500     297.5806    62.110898    122734.68   -37659.334     3632.393   -41291.727    260.62691 
   13550    297.25405    227.51222    122905.13   -37636.303    3628.4069    -41264.71    261.73867 
   13600    298.09705    147.81431    122967.35   -37629.851    3638.6969   -41268.548    262.61697 
   13650    295.50139   -43.788477    123006.42   -37668.642    3607.0132   -41275.655    263.28444 
   13700    300.82867    29.672547    123083.85   -37641.268    3672.0403   -41313.308    263.90171 
   13750    299.80429   -223.04199    123027.03   -37581.711    3659.5363   -41241.247    264.21234 
   13800    300.96546   -24.771906    123038.47   -37603.522    3673.7099   -41277.232    264.82775 
   13850     302.5829    112.36316    123173.01   -37597.726    3693.4531   -41291.179    265.94703 
   13900    300.48061    126.99972     123181.6   -37558.536    3667.7916   -41226.328     266.6938 
   13950    303.25081    109.01455    123228.45   -37483.856    3701.6059   -41185.462    267.50566 
   14000    305.41184    -31.51836    123268.44   -37457.448    3727.9844   -41185.432    268.12797 
   14050    301.81882   -276.05786    123003.67   -37518.636    3684.1265   -41202.763    268.62755 
   14100      298.748    82.272358    122760.86   -37552.299    3646.6427   -41198.941    269.01456 
   14150    302.01133   -163.32787    122625.92   -37569.367    3686.4763   -41255.844    269.80266 
   14200    302.85731   -26.583505    122609.68   -37550.477    3696.8027    -41247.28    271.10732 
   14250    300.56764    81.967893    122577.77   -37530.916     3668.854    -41199.77    272.08613 
   14300    297.46265   -17.106467    122580.58   -37574.107    3630.9532    -41205.06    272.64494 
   14350    302.69967    89.977341    122622.43   -37599.914    3694.8784   -41294.793     274.0495 
   14400    303.50078   -84.115898    122622.43   -37624.451    3704.6571   -41329.108    275.09009 
   14450    300.39123    8.2397681    122740.69   -37649.102    3666.7007   -41315.803    276.15538 
   14500    295.19679   -194.56532    122836.37    -37634.16    3603.2952   -41237.455    277.11207 
   14550    296.58742   -225.61914    122792.98   -37670.459    3620.2698   -41290.728    277.88176 
   14600    290.54809    56.426854    122672.94   -37613.411    3546.5512   -41159.962    278.71119 
   14650    305.90306    26.794206    122556.47   -37602.636    3733.9804   -41336.617    278.90929 
   14700    301.05757    92.543516    122639.25   -37587.488    3674.8343   -41262.323    280.13364 
   14750    302.94125   -19.532272    122683.59   -37486.858    3697.8273   -41184.685    281.23722 
   14800    303.56551    -16.93326    122717.06   -37551.922    3705.4472    -41257.37    282.47366 
   14850    297.55517    152.53489    122634.99   -37558.671    3632.0826   -41190.754    283.58477 
   14900    300.90555   -171.05695    122753.09    -37520.28    3672.9787   -41193.258    284.98183 
   14950    299.56672    105.99689     122741.6   -37599.671    3656.6363   -41256.308    285.85227 
   15000    300.49438   -179.46296    122739.27   -37578.834    3667.9598   -41246.794    286.52818 
   15050    299.94463   -67.819848    122594.14   -37558.425    3661.2493   -41219.674    287.52452 
   15100    297.27288   -104.30829    122662.76   -37594.233    3628.6367   -41222.869    288.88036 
   15150    301.35892   -76.116716    122446.33   -37601.861    3678.5127   -41280.374    289.39813 
   15200    301.55698    37.114195    122596.69   -37583.152    3680.9302   -41264.082    290.45022 
   15250    297.11612   -17.932109    122792.57   -37605.862    3626.7233   -41232.586    291.40503 
   15300     295.8992    99.906592    122568.61   -37638.945     3611.869   -41250.814    291.47679 
   15350    298.72004    44.049506    122672.03   -37644.894    3646.3014   -41291.196    292.52441 
   15400    295.27993   -28.466833    122632.21   -37671.891      3604.31   -41276.201    293.12381 
   15450    295.53305    22.723307    122539.53   -37668.742    3607.3997   -41276.142    293.85917 
   15500    301.43573     -49.0748    122540.29   -37623.609    3679.4503    -41303.06     295.2467 
   15550    305.04025    81.486086    122698.49   -37501.872    3723.4486   -41225.321    296.42427 
   15600    302.27124   -46.815333    122764.54   -37480.305    3689.6488   -41169.954    297.71169 
   15650    302.83984    -35.62591    122823.97    -37461.63    3696.5895    -41158.22    298.30843 
   15700    298.82229    112.63474    122824.55   -37448.843    3647.5495   -41096.392      299.297 
   15750    306.92574    54.596374    122835.04   -37435.896    3746.4636    -41182.36    300.35829 
   15800    305.21462   -157.23381    122777.82   -37465.334    3725.5769   -41190.911     301.2116 
   15850    303.54432    46.415245    122721.16   -37480.213    3705.1886   -41185.401    302.35448 
   15900    306.32869    44.601297    123013.66   -37451.749    3739.1758   -41190.925    303.96115 
   15950    302.05919   -12.381679    122816.86   -37464.076    3687.0605   -41151.137     304.2434 
   16000    300.24196   -37.425717    122742.52   -37499.959    3664.8786   -41164.837    304.91738 
   16050    297.25515    183.16833     122818.2   -37561.925    3628.4204   -41190.346    306.04257 
   16100    300.35158    242.05377    122861.83   -37577.392    3666.2166   -41243.609    306.87825 
   16150     303.1659    83.771096    122994.03    -37518.45    3700.5694   -41219.019    308.67583 
   16200    297.03874      54.0193    123048.02   -37537.555    3625.7788   -41163.334    309.29351 
   16250    299.07988    10.923756    122901.93   -37524.904    3650.6938   -41175.597    309.92247 
   16300    299.39822    41.907499    122827.37   -37553.021    3654.5796   -41207.601    310.75834 
   16350    301.93488    143.01705    122905.88   -37519.592    3685.5431   -41205.135    311.84091 
   16400    297.99384   -66.364813    123058.72   -37584.545    3637.4371   -41221.982    313.11189 
   16450    300.54512    43.710494    122991.72   -37525.126    3668.5792   -41193.705    314.31376 
   16500    304.48583   -55.849592    122998.41   -37495.202     3716.681   -41211.883    315.21707 
   16550    300.08254   -33.235443    122918.88    -37511.64    3662.9326   -41174.572    315.62245 
   16600    303.87352    -57.95529    122826.05   -37469.016     3709.207   -41178.223    316.29142 
   16650    296.72884    27.707313     123031.7   -37527.825    3621.9959   -41149.821    317.91042 
   16700    302.45083   -46.234563    122886.54   -37490.398     3691.841   -41182.239    318.85863 
   16750    304.74802   -73.016189    122819.51     -37533.1    3719.8814   -41252.981    319.83273 
   16800    297.71533   -4.8305174    122752.06   -37536.585    3634.0376   -41170.623    320.83222 
   16850    301.53733   -17.720268    122724.14   -37548.191    3680.6904   -41228.882    322.31214 
   16900    298.42849    301.18197    122918.77   -37549.824    3642.7427   -41192.567    323.41912 
   16950    296.57199   -59.092241    123044.21   -37573.434    3620.0815   -41193.515    324.44934 
   17000    301.30512   -75.540984    123104.41   -37612.874    3677.8559    -41290.73    325.64442 
   17050    301.21333   -10.402545    123038.78    -37523.77    3676.7356   -41200.506    326.42991 
   17100    299.66097   -107.01046    122980.81   -37557.878    3657.7867   -41215.664    327.50016 
   17150    297.77561    173.69528    122774.35   -37614.389    3634.7733   -41249.162    327.99161 
   17200    297.50724    21.701356    122886.09   -37619.507    3631.4975   -41251.004    329.51225 
   17250    296.15518    168.93697    123132.77   -37638.495    3614.9937   -41253.488    330.95881 
   17300    297.25487   -113.64685    123086.59   -37665.252     3628.417   -41293.669    331.91556 
   17350     297.1782    30.096452    123003.35   -37635.191    3627.4811   -41262.672    332.26149 
   17400    299.27474   -106.93087    122942.47   -37691.533    3653.0723   -41344.605    333.13165 
   17450    297.20731    126.33992    122903.17   -37607.905    3627.8365   -41235.742    333.73958 
   17500    299.85202   -14.686467     123032.7   -37588.954    3660.1188   -41249.073    334.93727 
   17550    298.54181   -108.16399    122889.16   -37556.456    3644.1259   -41200.582    336.13151 
   17600    299.47733    37.640838    122711.68   -37606.569    3655.5452   -41262.114    337.16385 
   17650    299.20636   -62.314505    122654.26   -37594.796    3652.2376   -41247.033    338.07706 
   17700    298.74354    236.46617    122579.97   -37646.606    3646.5882   -41293.194    338.72813 
   17750    295.21783    18.349924    122624.09   -37682.585     3603.552   -41286.137    340.18056 
   17800     296.1787    25.690807    122437.27   -37669.047    3615.2808   -41284.328    340.80715 
   17850    297.99706      17.6549    122526.79   -37600.225    3637.4765   -41237.702    342.17523 
   17900    296.22613    121.89749    122648.92   -37599.637    3615.8598   -41215.497    343.40165 
   17950    298.11881    189.46892    122787.57   -37598.591    3638.9626   -41237.554     344.3382 
   18000    304.13417    22.606516    122973.88   -37547.237    3712.3885   -41259.626    345.89351 
   18050    303.25193    35.461049     122907.4   -37514.062    3701.6195   -41215.682    346.93922 
   18100     301.7666     55.02477    122893.66   -37527.833     3683.489   -41211.322    347.78868 
   18150    302.93591   -56.373685    122956.61   -37579.877     3697.762   -41277.639     348.8143 
   18200    297.64549   -49.720136    122787.63   -37630.001     3633.185   -41263.186    349.36489 
   18250    296.31711   -170.69373    122728.82   -37599.398    3616.9703   -41216.368    349.91329 
   18300    299.81424    58.847681    122670.46   -37545.822    3659.6577    -41205.48    350.80878 
   18350    300.64628    25.915281    122738.88   -37590.628     3669.814   -41260.442    351.86074 
   18400    301.67326   -83.141205    123028.24   -37658.623    3682.3496   -41340.973    353.01461 
   18450     299.0115    -76.98725     123100.4   -37644.893    3649.8591   -41294.752    354.31437 
   18500    298.28887      29.7397     123034.5    -37609.29    3641.0384   -41250.329    354.93945 
   18550    300.80212    65.897799     123161.3   -37578.411    3671.7161   -41250.127    356.31119 
   18600    304.07697    47.312371    123236.19   -37532.682    3711.6903   -41244.373    357.41318 
   18650    297.01505   -111.44578    123222.06   -37565.835    3625.4896   -41191.325    357.58177 
   18700    302.21247   -102.24647    123134.38   -37540.955    3688.9315   -41229.887     358.5859 
   18750    302.37403   -60.510077    123005.07   -37585.737    3690.9036   -41276.641    359.66624 
   18800    302.12124   -100.09017    122923.15    -37596.12    3687.8179   -41283.938    360.26223 
   18850    296.82379    34.050906    122782.16   -37562.031     3623.155   -41185.186    360.67457 
   18900    298.49936    51.529566    122698.07   -37567.427    3643.6077   -41211.035     361.1496 
   18950    300.29698    1.7347835    122769.66   -37528.054    3665.5502   -41193.604    361.93005 
   19000    297.57833    75.658208     122763.7   -37519.871    3632.3652   -41152.236    363.08092 
   19050    300.70385   -21.023449    122834.99    -37522.68    3670.5166   -41193.196    364.61437 
   19100    298.56049   -138.24936    122788.72   -37478.407    3644.3539   -41122.761    365.59386 
   19150    297.15811   -85.070803    122617.43   -37512.296    3627.2358   -41139.532    366.58025 
   19200    301.75635    82.308153    122688.76   -37504.782    3683.3639   -41188.146    367.88527 
   19250    307.17471   -39.008481    122833.09   -37447.948    3749.5026    -41197.45    369.69454 
   19300    304.61982    93.406612    122851.77   -37360.932    3718.3167   -41079.249    370.64417 
   19350    306.67984   -52.275913    122940.52   -37435.438     3743.462   -41178.901     371.7251 
   19400    299.59502   -184.78149    122672.74   -37467.713    3656.9818   -41124.695    372.38658 
   19450    300.36179   -15.551226    122753.68   -37464.429    3666.3414    -41130.77    373.88927 
   19500    305.22931    29.131005     122816.4    -37415.24    3725.7563   -41140.997    374.89998 
   19550     304.2491    36.893668    122891.42   -37431.648    3713.7914    -41145.44    375.79803 
   19600    303.78291   -75.589268    122819.82   -37466.386    3708.1009   -41174.487    376.42066 
   19650    304.01181    56.011549    122865.21   -37399.434    3710.8949   -41110.329    378.20203 
   19700    302.45402    -57.03773    122943.78   -37471.141    3691.8799   -41163.021    379.37034 
   19750    307.96002    50.600478    122939.87   -37438.095    3759.0885   -41197.183    380.37809 
   19800     303.3149   -237.35878    122880.82   -37459.641    3702.3882   -41162.029    381.39638 
   19850    311.42882    173.06431    123121.47   -37401.078    3801.4301   -41202.508    383.07055 
   19900     302.4486   -28.122845    123238.36   -37504.611    3691.8138   -41196.425    384.77793 
   19950     304.4979   -96.277886    123002.81   -37514.981    3716.8283    -41231.81    384.83394 
   20000    303.45865   -37.139029    122990.58   -37544.128    3704.1428   -41248.271    385.87771 
   20050    298.08813   -124.82706    122972.55   -37582.475     3638.588   -41221.063     387.0523 
   20100    301.18073   -72.314679    122876.77   -37590.684    3676.3377   -41267.022    387.88453 
   20150    296.29557  -0.69768809    122998.35   -37604.695    3616.7074   -41221.403    389.12625 
   20200    299.63647    35.191697    123060.29   -37609.684    3657.4877   -41267.171    390.37993 
   20250    297.39783   -18.532399    123001.62   -37596.969     3630.162   -41227.131    391.11964 
   20300    300.98162   -317.22318    122723.03   -37553.554    3673.9072   -41227.461    392.35203 
   20350    303.60733   -121.46308    122542.97   -37511.526    3705.9577   -41217.484    393.37619 
   20400     297.4065    12.097236    122614.58   -37560.974    3630.2677   -41191.241    394.73188 
   20450    302.73722    82.829565    122733.86   -37574.467    3695.3368   -41269.804    396.14811 
   20500    296.16453    138.08049    122759.67   -37610.441    3615.1078   -41225.549    397.39579 
   20550    295.00145    137.31497    122870.53   -37681.315    3600.9107   -41282.226    398.36652 
   20600    296.01272   -35.060132    122996.84   -37631.075    3613.2547   -41244.329    399.86137 
   20650    298.13656    101.06646    122986.89   -37658.867    3639.1792   -41298.046    401.24298 
   20700    299.49085   -65.172907    122905.78    -37600.15    3655.7102   -41255.861    402.80865 
   20750    297.60885    317.06187    122996.63   -37580.212    3632.7378    -41212.95    404.30516 
   20800    299.75468   -72.955633    123010.55   -37511.966    3658.9307   -41170.896    405.27817 
   20850    304.32766    104.51643    123121.49   -37491.934    3714.7503   -41206.684    406.36879 
   20900    297.99868   -5.5577696    123216.49   -37523.951    3637.4963   -41161.447    407.06719 
   20950     294.3425    36.341344    123201.69   -37549.617    3592.8673   -41142.485     408.0079 
   21000    299.69528   -326.45205    123055.37   -37571.005    3658.2056   -41229.211    408.92936 
   21050    304.26115    96.217585    122980.45   -37518.041    3713.9386    -41231.98    409.39232 
   21100     301.0094   -33.526792    123026.66   -37504.894    3674.2463    -41179.14     410.0539 
   21150    301.12502    118.77769    123006.43   -37517.907    3675.6576   -41193.565    411.01902 
   21200    302.05675    -81.05528     122976.8   -37504.234    3687.0307   -41191.265    412.51138 
   21250    308.10979     32.04695    123088.98   -37484.952    3760.9166   -41245.869    414.15571 
   21300    305.25304   -217.17791    123023.08   -37487.599     3726.046   -41213.645    415.16478 
   21350    297.32655    152.25178    123044.63   -37514.341    3629.2919   -41143.633    416.16396 
   21400    296.91015   -119.34963    123107.88   -37514.676    3624.2091   -41138.885    417.07985 
   21450    306.71249   -112.97705     123051.5   -37439.866    3743.8605   -41183.726    417.69996 
   21500    307.17768   -26.908372    123148.25   -37447.182    3749.5389   -41196.721    418.79663 
   21550    308.18268   -79.607147    123345.27   -37428.411    3761.8064   -41190.218    420.91919 
   21600    302.27711   -39.826414    123209.87   -37433.943    3689.7205   -41123.663    421.90427 
   21650    299.36765   -296.77387    122968.29   -37482.228    3654.2064   -41136.434    422.36461 
   21700    302.24585   -58.952694    122604.18    -37542.62     3689.339   -41231.959     422.4767 
   21750     297.6388    122.88774    122667.03   -37554.981    3633.1034   -41188.084    423.23528 
   21800    297.82243    84.900757    122717.74   -37539.195    3635.3449    -41174.54    424.43981 
   21850    298.32854   -215.46423    122783.81   -37552.051    3641.5226   -41193.574    425.51988 
   21900    302.42459    3.7721296    122584.64   -37562.975    3691.5207   -41254.496    426.04414 
   21950    301.04406   -114.56431    122685.62   -37566.077    3674.6694   -41240.746    427.27441 
   22000    294.21036    308.19735    122860.26   -37615.638    3591.2544   -41206.892    428.44291 
   22050    298.53336    154.42623    123034.35   -37579.516    3644.0227   -41223.538    428.97614 
   22100    298.43524    10.815779    122953.49   -37600.377     3642.825   -41243.202    429.79406 
   22150    292.62922    124.11961    122936.33   -37691.503    3571.9543   -41263.458     431.3466 
   22200    291.04689   -219.17327    122702.23   -37754.215    3552.6398   -41306.854    432.20148 
   22250    299.82539   -1.5034086    122600.51   -37678.588    3659.7938   -41338.382      432.826 
   22300      299.138    276.32911    122747.88   -37666.145    3651.4032   -41317.548    432.84111 
   22350    299.98725    143.23445     122943.6   -37559.405    3661.7695   -41221.175    434.45115 
   22400     304.8641    203.86549    122938.56   -37561.861    3721.2984    -41283.16    435.80713 
   22450    302.46475    130.39696    123147.15   -37584.161    3692.0109   -41276.172    436.75227 
   22500    303.53649   -118.12983    123191.29   -37597.967     3705.093    -41303.06    437.04112 
   22550    293.35757    52.873551    123145.07    -37614.44    3580.8449   -41195.285    437.83123 
   22600    300.43155    38.127949    123106.03   -37593.771    3667.1928   -41260.964    438.67924 
   22650    292.19335   -88.756343    123204.32   -37633.618     3566.634   -41200.252    439.54779 
   22700    294.76275   -125.00045    123009.08   -37616.789    3597.9971   -41214.786    439.64074 
   22750    300.92353    -165.0061    122897.21   -37605.892    3673.1982    -41279.09    439.93599 
   22800    295.70918    100.23628    122785.92   -37536.049    3609.5496   -41145.598    440.65235 
   22850    299.91967    54.847642    122781.12   -37542.393    3660.9446   -41203.338    441.37289 
   22900    298.28143    239.94423     122706.3   -37569.787    3640.9475   -41210.735     442.4612 
   22950    297.32189    126.75977    122994.51   -37630.679     3629.235   -41259.914    444.14192 
   23000    300.38762   -170.67266    122946.17   -37629.572    3666.6566   -41296.229    444.76768 
   23050    294.77111   -11.288933    122971.69   -37648.067    3598.0992   -41246.166    445.54658 
   23100    306.69211    61.414885    122909.26   -37561.147    3743.6118   -41304.759    446.17724 
   23150    298.25609   -162.46931    122949.88    -37644.85    3640.6383   -41285.488    447.35678 
   23200    300.69916   -35.463136    122745.71   -37572.258    3670.4594   -41242.717    447.04345 
   23250    300.95456   -120.80187    122870.43   -37554.271    3673.5769   -41227.848    448.06513 
   23300    295.77196   -44.537921    122991.68   -37571.506     3610.316   -41181.822    449.21668 
   23350    298.34425    84.420489    123065.94   -37522.305    3641.7144    -41164.02     450.7832 
   23400    305.00096    -224.8799    122956.61   -37541.579    3722.9689   -41264.548    451.85546 
   23450    300.85856   -108.39968    122901.92   -37527.934    3672.4051   -41200.339    452.11248 
   23500     299.2011   -89.537717    122617.04   -37531.484    3652.1734   -41183.657    452.26773 
   23550    302.20659    267.17206    122643.56   -37445.551    3688.8597    -41134.41    452.76324 
   23600     303.0607    22.418876    122894.95   -37451.375    3699.2854    -41150.66    453.62456 
   23650    299.75894    48.863054    123042.87   -37479.156    3658.9826   -41138.138    454.72468 
   23700    303.95639   -93.174089    122833.19   -37459.452    3710.2185    -41169.67    455.07385 
   23750     305.2474    82.103033    122863.75   -37455.365    3725.9771   -41181.342    457.10478 
   23800    298.78848    158.61693    122860.98   -37458.478    3647.1368   -41105.615    457.80128 
   23850    304.08978    229.14146     122974.7   -37528.591    3711.8467   -41240.438    459.54604 
   23900    300.11277   -8.3826053    123128.71   -37557.974    3663.3016   -41221.276    461.20695 
   23950    304.88819   -43.118833    123140.28   -37520.386    3721.5924   -41241.979    461.96547 
   24000    299.63155    54.591635    123198.89   -37511.164    3657.4277   -41168.592    462.93707 
   24050    307.64078   -12.714291    123426.71   -37491.861    3755.1917   -41247.052    464.30764 
   24100    310.98991   -94.548644    123400.62   -37482.518    3796.0726   -41278.591    464.91797 
   24150     301.2369   -125.17085       123378   -37478.458    3677.0233   -41155.481    465.94976 
   24200    302.16979   -55.726144    123132.99   -37553.925    3688.4106   -41242.336    465.98882 
   24250    303.55668   -214.20117    123149.62   -37590.852    3705.3395   -41296.192    466.89567 
   24300     301.7507    -222.6976    123066.33   -37610.717    3683.2949   -41294.012    467.72209 
   24350    302.40954   -126.34719    122929.02   -37608.199     3691.337   -41299.536    467.81334 
   24400    289.61432    -1.803245    123005.19   -37636.035    3535.1532   -41171.188    469.10643 
   24450    293.14217     163.9082    123070.51   -37569.931    3578.2156   -41148.146     470.2032 
   24500    298.71679    0.3729965    123084.11   -37572.735    3646.2617   -41218.997    471.25383 
   24550    301.55803    176.12364    123186.71   -37596.925    3680.9431   -41277.868    472.51276 
   24600    298.51988   -200.01893    123151.57   -37635.623    3643.8582   -41279.481    473.47127 
   24650    302.71666   -66.846791    122991.08   -37642.886    3695.0858   -41337.972    473.82506 
   24700    298.35269   -159.69762       122636   -37684.169    3641.8174   -41325.987     473.6338 
   24750    294.77996   -92.379088    122475.26   -37606.434    3598.2071   -41204.641    473.92502 
   24800    297.28994    171.85162    122614.99   -37646.324     3628.845   -41275.169    475.01589 
   24850    293.39817    105.36951     122662.1   -37593.143    3581.3404   -41174.483    475.74521 
   24900    292.99617   -61.543366    122686.04    -37647.48    3576.4335   -41223.913     476.5387 
   24950    296.94233     93.74383    122601.15   -37666.583     3624.602   -41291.185    477.02293 
   25000    299.48294    77.099819    122675.97   -37615.544    3655.6136   -41271.158     477.8558 
   25050    292.32319    142.12651    122846.05   -37680.055    3568.2188   -41248.273    479.26573 
   25100    292.57066   -240.39333    122788.43   -37657.849    3571.2395   -41229.089    480.29041 
   25150    290.87386    17.033969     122740.5   -37695.687    3550.5277   -41246.215    480.40264 
   25200     295.5411    -34.35756    122675.79   -37764.605    3607.4979   -41372.103    481.24516 
   25250    295.37166    23.187856     122724.9    -37745.73    3605.4297    -41351.16    481.78552 
   25300    294.88264    10.061196    122749.83   -37720.204    3599.4605   -41319.665    482.93799 
   25350    298.05803    19.317814    122890.46   -37601.606    3638.2207   -41239.827    484.25672 
   25400    297.73264    50.404472    122826.94   -37670.843    3634.2488   -41305.092    484.58252 
   25450    298.21122   -111.31296    122695.58   -37653.179    3640.0906   -41293.269    484.50371 
   25500    300.17266    116.80255    122746.59    -37629.22    3664.0327   -41293.253    485.71756 
   25550     300.8684   -66.369333    122729.65   -37565.658    3672.5252   -41238.183    486.29331 
   25600    305.62568     71.29385    122760.96   -37496.369    3730.5946   -41226.963     486.9276 
   25650    300.87411   -320.33149    122842.53   -37535.075    3672.5949    -41207.67    488.53633 
   25700     297.6021    61.164464    122818.73   -37595.883    3632.6553   -41228.539    488.76671 
   25750    300.76896   -76.103706    122800.76   -37604.663    3671.3114   -41275.975    489.89219 
   25800    303.79717     47.32527    122869.78   -37494.956     3708.275   -41203.231    491.14906 
   25850    302.67511   -75.480003    122841.82   -37472.601    3694.5787   -41167.179    491.98771 
   25900    306.85888   -141.40325    122890.61   -37480.537    3745.6475   -41226.184    493.21668 
   25950     299.2187   -71.825269    122969.48   -37546.584    3652.3883   -41198.973    494.24132 
   26000     306.0351   -174.49384    122887.07   -37500.682    3735.5921   -41236.274    495.29679 
   26050    301.82912   -221.11309    122679.89   -37523.388    3684.2521    -41207.64    495.09761 
   26100     296.0453    265.15643     122647.2   -37501.069    3613.6524   -41114.721    495.82445 
   26150    303.35691   -13.221791    122636.92   -37484.601     3702.901   -41187.502    496.71311 
   26200    293.74399    246.20551    122796.93   -37525.583    3585.5617   -41111.145    498.70105 
   26250    296.73741   -150.54016    122738.96   -37551.599    3622.1006   -41173.699    499.59393 
   26300    302.39846    301.39468    122945.56   -37566.541    3691.2017   -41257.743    500.76417 
   26350    300.85002    17.965428     123140.7   -37559.279    3672.3008    -41231.58     502.1981 
   26400    296.86413   -48.882463    123112.37    -37589.28    3623.6474   -41212.928     503.5966 
   26450    307.53096   -170.54087    123098.57     -37503.6    3753.8512   -41257.451    504.84598 
   26500    302.99411   -70.001906    123296.66   -37504.073    3698.4725   -41202.546    506.53037 
   26550    302.48676    182.36171    123380.41   -37482.386    3692.2796   -41174.666    507.38244 
   26600    306.40693    154.14099    123533.17   -37468.614    3740.1308   -41208.745    509.27577 
   26650    302.27608   -151.81923    123505.27   -37476.975     3689.708   -41166.683    509.88975 
   26700    308.52402   0.70221831    123327.14   -37455.042    3765.9729   -41221.015    509.90254 
   26750    311.61402   -111.20342    123189.78   -37453.398    3803.6907   -41257.089    510.12719 
   26800    303.95405   -208.97434    123105.25   -37525.616      3710.19   -41235.806    510.39456 
   26850    300.51458   -21.861644    122990.53   -37564.056    3668.2064   -41232.262    510.30585 
   26900    303.01742    96.522709    122970.96   -37510.287     3698.757   -41209.044    511.19076 
   26950    305.33969    195.14141    123031.11   -37494.553    3727.1037   -41221.657    512.55743 
   27000    304.59769   -217.67897    123022.19    -37510.58    3718.0465   -41228.627    513.56516 
   27050    299.98297   -35.937353    122979.66    -37523.81    3661.7173   -41185.527    515.05583 
   27100    298.79641    149.49245    122928.65   -37480.424    3647.2336   -41127.658    516.43591 
   27150      306.242   -5.0774724    122907.16   -37489.941    3738.1176   -41228.059    517.16778 
   27200    296.90951    79.663706     122909.9   -37514.498    3624.2013     -41138.7    517.56769 
   27250    301.19522   -67.233532    122997.87   -37473.765    3676.5145   -41150.279    518.34999 
   27300    301.15904   -4.5622854    122975.25   -37393.433    3676.0729   -41069.506    519.37017 
   27350    308.33666   -185.20565    122980.93    -37397.12    3763.6859   -41160.806    521.32763 
   27400    297.67535   -66.261662    122800.15   -37424.113    3633.5494   -41057.662    522.82681 
   27450    298.04613    16.639304    122903.36   -37444.048    3638.0753   -41082.123    524.19015 
   27500    301.83647   -254.16405    122708.74   -37514.152    3684.3419   -41198.494    524.19612 
   27550    298.78106    -167.0019    122555.66   -37583.408    3647.0462   -41230.455    524.70616 
   27600    298.31719    150.56341    122532.58   -37624.722     3641.384   -41266.106    525.15873 
   27650    295.75712    34.487036    122452.68   -37600.296    3610.1348   -41210.431    526.12019 
   27700    299.04716   -195.93417    122433.11   -37540.078    3650.2944   -41190.372    526.79591 
   27750     306.9348   -88.906194    122384.03   -37457.304    3746.5742   -41203.879    527.11541 
   27800    300.88306    132.10811    122424.51   -37449.481    3672.7042   -41122.185    528.15991 
   27850    303.75283    105.82841    122580.09   -37472.319    3707.7338   -41180.053    529.65628 
   27900    301.78605   -126.80031    122508.45   -37550.908    3683.7264   -41234.634    530.48016 
   27950    304.78366    22.249789    122537.09   -37550.158    3720.3165   -41270.475    531.26835 
   28000    293.51843    246.93474    122636.97   -37614.597    3582.8084   -41197.406    532.49658 
   28050    296.19755    106.91268    122820.79   -37629.183    3615.5108   -41244.694    533.53726 
   28100    294.69956   -1.5589871    122892.94   -37584.823    3597.2257   -41182.049    534.80027 
   28150     297.8121   -84.333552    122933.58    -37543.56    3635.2188   -41178.778    535.38182 
   28200    300.79178    115.61638    122928.98   -37566.829    3671.5899   -41238.419    535.97317 
   28250    301.61637    162.63853    123143.14   -37563.262    3681.6553   -41244.917    537.43921 
   28300    300.29092   -52.384535    123338.41   -37570.983    3665.4762   -41236.459    539.35953 
   28350    303.47282     3.820001     123262.3   -37548.963    3704.3159   -41253.279     539.9395 
   28400     301.5348    39.769897    123094.49   -37585.801    3680.6596    -41266.46    540.12041 
   28450    301.52603    26.107252    122924.23   -37561.696    3680.5525   -41242.249    540.30208 
   28500    295.43804   -164.69725    122892.09   -37600.061      3606.24   -41206.301    541.59789 
   28550    297.28192    75.364754    122974.83   -37600.759    3628.7471   -41229.506    543.01297 
   28600    298.69506   -6.1402645    122704.78   -37611.705    3645.9966   -41257.702    543.29647 
   28650    299.29643   -12.705431    122801.05   -37597.887    3653.3371   -41251.224    544.92345 
   28700    296.20309   -16.436081    122670.92   -37614.196    3615.5784   -41229.774    545.87032 
   28750    296.31353   -288.55552    122667.78   -37610.719    3616.9265   -41227.646    546.62094 
   28800     301.2373    11.329403    122582.23   -37637.156    3677.0281   -41314.184    547.72035 
   28850    296.50558    121.58986    122550.76   -37603.494    3619.2708   -41222.764    549.03838 
   28900     296.9235   -52.588048       122711   -37586.979    3624.3721   -41211.351    551.40685 
   28950    296.32133    126.74491    122676.27   -37565.669    3617.0218   -41182.691    552.58603 
   29000    297.59644   -230.02814    122642.98   -37552.821    3632.5862   -41185.407    553.51426 
   29050    300.39021    266.07736    122923.95   -37529.978    3666.6882   -41196.666    555.68312 
   29100      301.181   -102.85722    122999.97   -37508.223     3676.341   -41184.564    556.90842 
   29150    305.33575    172.78739    122981.63   -37468.401    3727.0555   -41195.457    558.02909 
   29200    302.01175     188.9362    122917.78   -37444.348    3686.4814   -41130.829    558.87521 
   29250    306.04633     35.01369    122883.42   -37489.075    3735.7291   -41224.805    559.15205 
   29300    299.28519    157.73083    123024.14   -37463.337    3653.1998   -41116.537    559.74609 
   29350    301.16671    136.20613    122981.79    -37503.26    3676.1665   -41179.427    560.47804 
   29400    297.81357     28.75753    122983.47   -37501.343    3635.2367    -41136.58    561.03046 
   29450    300.18327    98.395171       123103   -37443.396    3664.1622   -41107.558    561.79825 
   29500    301.69331   -20.423582    123234.45   -37462.034    3682.5944   -41144.629    563.20881 
   29550    304.52035   -47.332209    123135.79   -37493.098    3717.1024   -41210.201    563.50499 
   29600    307.71758   -175.30029    123012.41   -37467.383    3756.1292   -41223.512    563.99861 
   29650    302.84523   -124.39316    122941.06   -37439.417    3696.6552   -41136.072    565.70914 
   29700    302.50936   -101.55617    122737.93   -37548.897    3692.5555   -41241.452    565.80471 
   29750    299.06382    196.87237    122807.62   -37597.799    3650.4978   -41248.297    566.91056 
   29800    292.03619   -195.66858    122660.88    -37652.95    3564.7156   -41217.665    567.52435 
   29850    299.15881   -156.15365    122548.53   -37609.139    3651.6572   -41260.797    567.96776 
   29900    297.47797    145.09349    122493.38   -37601.431    3631.1402   -41232.571    568.16918 
   29950    293.94097    78.255282    122494.21   -37637.555    3587.9661   -41225.521    569.66341 
   30000     295.9849    175.59294    122683.64   -37655.407    3612.9151   -41268.323    571.15399 
   30050    299.80363   -88.840247    122672.94   -37619.517    3659.5282   -41279.045    571.95874 
   30100     300.1166    104.50164    122933.72   -37545.418    3663.3484   -41208.767    572.98831 
   30150    303.71754   -60.347287    122849.28   -37560.481     3707.303   -41267.784    573.46395 
   30200     295.6764   -157.00864    122769.32   -37619.511    3609.1495   -41228.661    574.28592 
   30250    296.43801     95.80834    122810.72   -37582.359     3618.446   -41200.805     575.2715 
   30300    293.97926   -35.140981     122743.4   -37600.243    3588.4335   -41188.676    575.36534 
   30350    302.13583     19.51403    122424.45   -37533.793     3687.996   -41221.789     575.1378 
   30400    293.79889    193.59416    122487.79   -37580.083    3586.2319   -41166.315    576.49071 
   30450    292.58369     -112.008    122496.49   -37689.176    3571.3986   -41260.575    577.18942 
   30500    292.82494   -51.211084     122388.3   -37660.648    3574.3434   -41234.991    577.37759 
   30550      304.812   -125.58576    122453.04     -37658.3    3720.6625   -41378.962    578.94029 
   30600    295.05052     234.5589    122602.73   -37606.118    3601.5098   -41207.628    580.18307 
   30650    300.76351   -154.59237    122574.71    -37601.24    3671.2449   -41272.485    581.73803 
   30700    297.70707   0.93351563    122537.33   -37657.315    3633.9367   -41291.251    582.50091 
   30750    301.54787    2.6365119    122552.73   -37621.265    3680.8191   -41302.084    583.55249 
   30800    301.16282   -207.21584    122638.03   -37614.843     3676.119   -41290.962    585.24762 
   30850     304.9663    100.74454    122634.84   -37528.569    3722.5458   -41251.115    586.31237 
   30900     300.3823    -45.50916       122784    -37552.03    3666.5916   -41218.622    588.25332 
   30950    303.22946    129.48829    122820.62    -37539.55    3701.3453   -41240.895    589.82585 
   31000    299.89767    23.681172    122772.05   -37569.215     3660.676   -41229.891    590.92559 
   31050    301.14838    93.814512    122790.06   -37578.934    3675.9427   -41254.877    591.25073 
   31100    303.11889   -62.439576    122798.52   -37599.186    3699.9957   -41299.182      591.725 
   31150    306.49035    37.693957    122848.73   -37582.893    3741.1491   -41324.042    592.72092 
   31200     296.9894    22.203203    122796.57   -37586.544    3625.1765   -41211.721    593.64766 
   31250    299.57867    59.102917    122824.74   -37543.847    3656.7823   -41200.629    594.92269 
   31300    306.49946    -85.20316    122846.41   -37475.417    3741.2603   -41216.678    595.71832 
   31350    304.45826   -162.18725     122902.7   -37496.591    3716.3445   -41212.935    596.73819 
   31400    297.86658   -25.717176     122835.8   -37549.582    3635.8837   -41185.466     597.2201 
   31450    306.76572   -90.097942     122933.8   -37540.178    3744.5103   -41284.688    598.81432 
   31500    305.44831    64.443735     123001.9   -37495.213    3728.4294   -41223.643    600.44593 
   31550    301.93121   -40.767589    123050.53   -37536.071    3685.4982   -41221.569    601.25865 
   31600    305.37419    412.39899    122973.99   -37530.671    3727.5247   -41258.196    601.23073 
   31650    294.80334    118.38042    123196.25   -37559.089    3598.4926   -41157.581     603.4192 
   31700    301.00433   -8.2054505    123129.65   -37510.881    3674.1844   -41185.065    603.77821 
   31750    306.50732   -184.86217    123031.52   -37444.166    3741.3562   -41185.523    603.63531 
   31800    305.69043   -27.403833    123053.42   -37485.695    3731.3849    -41217.08    604.30223 
   31850    302.19263    -41.06064    123052.01   -37556.079    3688.6893   -41244.769    605.53896 
   31900    294.48501    22.096408    122920.24   -37546.967    3594.6069   -41141.574    606.08613 
   31950    305.63134   -81.567349    123036.02   -37571.774    3730.6637   -41302.438    606.88069 
   32000    299.31371   -200.58061     123136.1   -37543.542    3653.5481    -41197.09    607.80867 
   32050    295.87398   -24.581592    123112.89   -37531.859    3611.5612    -41143.42    608.94088 
   32100    303.69337   -85.236017    122920.57   -37598.223     3707.008   -41305.231    608.33969 
   32150    301.22374   -29.475707     122812.3    -37625.63    3676.8627   -41302.492    608.69313 
   32200      294.376    29.629521    122866.92   -37708.336    3593.2763   -41301.612    609.50388 
   32250    300.03636   -169.55359    122709.32   -37725.185     3662.369   -41387.554    609.77688 
   32300    295.10139    239.79692    122601.22   -37685.779    3602.1306   -41287.909    610.48111 
   32350    296.41299   -71.099559    122799.69   -37709.527    3618.1407   -41327.668    612.52844 
   32400    295.82494    85.288107    122993.23   -37705.375    3610.9626   -41316.337    614.38298 
   32450    299.72304   -238.54313    122953.54   -37668.358    3658.5444   -41326.902    615.39199 
   32500    300.08688    105.84573    122802.05   -37613.781    3662.9856   -41276.767    616.19531 
   32550    298.86726   -37.472184    122748.39   -37633.805    3648.0984   -41281.904    617.20274 
   32600    303.51733   -85.659745    122619.29   -37574.225    3704.8591   -41279.084    617.24165 
   32650     303.0019    253.51603    122671.92   -37589.984    3698.5675   -41288.551     618.0588 
   32700    290.43756    58.568429    122795.72   -37656.191     3545.202   -41201.393    618.96437 
   32750    300.31004   -57.934387    122632.36   -37608.981    3665.7097   -41274.691    619.36463 
   32800    308.46865    194.56746    122678.62   -37540.641     3765.297   -41305.938    620.65137 
   32850    301.98129    163.17358    122856.38   -37534.791    3686.1096     -41220.9    623.03372 
   32900    298.49556   -32.373855    123037.11   -37586.799    3643.5613   -41230.361    625.21515 
   32950    302.23078   -170.44366    122908.99   -37571.505     3689.155    -41260.66    625.47263 
   33000    299.98445    219.56097    122957.93   -37570.057    3661.7354   -41231.792    626.57974 
   33050    300.29161    79.306968    123178.33   -37585.723    3665.4847   -41251.208    628.04175 
   33100    300.59899   -22.070274    123214.73   -37572.353    3669.2367    -41241.59    630.01118 
   33150     300.2488    9.3250637    123215.74   -37552.518    3664.9621    -41217.48    630.61766 
   33200     299.7467   -148.64545    123225.36   -37587.314    3658.8332   -41246.147    631.34477 
   33250    296.99408      131.366       123121   -37599.756    3625.2336   -41224.989    632.43135 
   33300    298.84712   -83.199853    123288.29   -37555.865    3647.8527   -41203.718    634.67378 
   33350    299.11041    -281.3649     123060.9   -37597.969    3651.0665   -41249.035    634.94789 
   33400    303.04999   -37.312091    122949.75   -37598.685    3699.1546    -41297.84    635.22882 
   33450     298.0385    -148.9009    122780.75   -37643.381    3637.9822   -41281.363     635.1528 
   33500    297.51056    5.8674417     122639.8   -37653.409     3631.538   -41284.947     635.0138 
   33550    297.38306   -37.078537    122657.65   -37607.886    3629.9817   -41237.867    636.07099 
   33600    298.66371   -92.842325    122389.85   -37625.211    3645.6138   -41270.825    636.11748 
   33650    297.53895   -9.2299408    122411.09   -37587.322    3631.8845   -41219.206    636.76153 
   33700    302.30509    29.970689    122423.23   -37591.062    3690.0621   -41281.124    637.77327 
   33750    303.46163    147.02465    122539.03   -37482.295    3704.1793   -41186.474    638.61852 
   33800    300.57165    206.56045    122646.43     -37457.4     3668.903   -41126.303     639.2524 
   33850    298.21807    270.98126    122904.52   -37460.212    3640.1741   -41100.387    641.16632 
   33900    305.10085    216.06606    123087.13   -37429.453    3724.1882   -41153.641    642.83928 
   33950     304.8109   -165.86752    122998.28   -37516.096     3720.649   -41236.745    643.26668 
   34000    302.29314   -135.12548    122768.77   -37612.291    3689.9162   -41302.207    643.86844 
   34050    299.77122    27.261546    122808.24   -37583.131    3659.1326   -41242.264    645.91905 
   34100    299.17825   -144.19675    122900.47   -37569.314    3651.8945   -41221.209    646.81755 
   34150    296.58166    8.3643088    122772.91   -37614.629    3620.1995   -41234.829    647.79233 
   34200    294.62291   -79.680248    122829.05   -37595.874    3596.2902   -41192.164     648.5295 
   34250    297.22802   -185.13015    122688.45   -37605.005    3628.0892   -41233.094     649.3863 
   34300    297.55667   -28.573401    122754.85   -37658.956    3632.1008   -41291.057    650.50593 
   34350    295.84982   -60.484449    122882.51   -37631.053    3611.2664   -41242.319    651.67185 
   34400    300.59351    177.31784    122795.12   -37625.262    3669.1697   -41294.432    652.10618 
   34450     300.8843    163.69739    122951.76   -37601.436    3672.7192   -41274.156     653.7096 
   34500    299.88001   -30.547706     122858.8   -37502.333    3660.4605   -41162.794    654.07373 
   34550    309.37358    137.10805    122893.53   -37417.689     3776.343   -41194.032    655.83543 
   34600     301.7575   -7.5788898    122907.71   -37455.548     3683.378   -41138.926    656.28293 
   34650     308.8741    9.2015876    122959.09   -37484.573    3770.2461   -41254.819    656.66881 
   34700    300.53531   -84.113525    123006.88   -37547.382    3668.4594   -41215.841    657.70191 
   34750    299.64739    60.865022    122948.43   -37614.412     3657.621   -41272.033    657.90495 
   34800    295.98591    64.722273     122972.6   -37612.937    3612.9274   -41225.864    658.81058 
   34850    299.76524    -37.29226    122971.64   -37577.153    3659.0596   -41236.213    659.71595 
   34900    303.86754   -62.086231    122833.39   -37549.461    3709.1339   -41258.595    659.93398 
   34950    296.91925     -13.2123    122814.53   -37559.457    3624.3202   -41183.778     660.7255 
   35000    306.54574    139.93326    122702.04     -37561.2    3741.8252   -41303.025    660.72378 
   35050    303.68656    41.075018    122853.31   -37508.087    3706.9248   -41215.011    662.60668 
   35100    298.73483   -133.11665    122658.22   -37540.464    3646.4819   -41186.946    662.54115 
   35150    302.46343   -120.08482    122611.12   -37549.293    3691.9948   -41241.288    663.49755 
   35200    301.72077    28.379547    122737.13   -37492.481    3682.9295    -41175.41    664.73484 
   35250    303.94406     262.1351    122794.01   -37515.879     3710.068   -41225.947    665.69576 
   35300     301.0277    253.90558       123098   -37523.648    3674.4697   -41198.117    667.77604 
   35350    301.82226    151.45247    123262.79   -37544.713    3684.1685   -41228.882    669.21591 
   35400    296.12241   -85.202677    123383.82    -37571.28    3614.5937   -41185.874    670.49427 
   35450    299.98632   -291.79977    123170.19   -37558.482    3661.7582   -41220.241    670.41894 
   35500    300.52132      -136.84    122969.19   -37584.961    3668.2885    -41253.25    670.44437 
   35550    301.06449    3.7898595    122870.08   -37549.152    3674.9188   -41224.071    671.56238 
   35600    302.70158   -31.324349    123071.63   -37575.189    3694.9018   -41270.091    672.97678 
   35650    297.87711    98.933305    122970.85   -37572.429    3636.0122   -41208.441    673.86853 
   35700    300.46205    -38.32178    123053.67   -37518.447    3667.5651   -41186.012    675.28583 
   35750    307.67429   -19.960829    123082.95   -37454.503    3755.6007   -41210.104    676.52566 
   35800    302.76835    16.128393    123039.14   -37384.175    3695.7168   -41079.892    677.82024 
   35850    308.61211    117.49228    123001.31   -37413.057    3767.0481   -41180.105    678.72453 
   35900    300.92592   -56.073601    123160.01   -37464.261    3673.2273   -41137.488     680.0487 
   35950    302.02586    -71.21419     123130.6   -37517.964    3686.6536   -41204.618    680.80809 
   36000    302.10268    198.92699    123089.69   -37539.738    3687.5913   -41227.329    682.02895 
   36050    301.21354   -148.06463    123240.85   -37543.774    3676.7381   -41220.512    683.61393 
   36100     301.1551   -39.500371    123094.11   -37593.003    3676.0248   -41269.028      684.245 
   36150    292.53207    8.2398021       123004   -37597.877    3570.7685   -41168.646    684.64058 
   36200     297.5949   -104.05594    123006.14   -37551.727    3632.5674   -41184.294    684.79137 
   36250    295.18033   -1.3107553    122978.87   -37648.947    3603.0942   -41252.042    684.77948 
   36300    303.46132   -70.305092     122983.7   -37560.236    3704.1755   -41264.412    685.55463 
   36350    298.77892    86.780883    123054.79   -37591.048    3647.0201   -41238.068    686.49896 
   36400    297.08797   -164.54729    123014.94   -37587.574    3626.3797   -41213.954    687.24428 
   36450    299.66794    98.903093    123010.53   -37627.155    3657.8719   -41285.027     688.0572 
   36500    297.13332    64.947962     123018.3   -37595.137    3626.9333   -41222.071    689.46661 
   36550    303.25788   -33.113923    122917.09   -37579.282    3701.6921   -41280.974    689.97712 
   36600    299.31361    117.03775    122782.04   -37557.283    3653.5468    -41210.83    690.35672 
   36650    299.70185    88.256011    122747.36   -37576.736    3658.2858   -41235.022    691.52554 
   36700    304.28208   -138.31126    122792.83   -37614.974     3714.194   -41329.168    693.21251 
   36750    301.66305   -148.86985    122585.95   -37662.285    3682.2251    -41344.51    693.70648 
   36800    295.83015   -15.924105    122422.81   -37686.135    3611.0262   -41297.161    694.07647 
   36850    298.80858   -47.612834    122407.22   -37669.846    3647.3821   -41317.228    694.59229 
   36900    301.27362    110.60993    122349.48   -37651.566    3677.4715   -41329.038    695.69636 
   36950    294.22652    131.46218    122531.43   -37663.885    3591.4516   -41255.336    697.78588 
   37000     300.7126    242.73956    122793.34   -37633.052    3670.6235   -41303.676    700.51052 
   37050    292.56057   -269.41765    122645.86   -37687.638    3571.1163   -41258.755    700.69054 
   37100    297.16674   -193.04242    122631.77   -37658.939    3627.3411    -41286.28    702.33523 
   37150    300.34993   -41.574164    122584.93   -37651.601    3666.1966   -41317.798    703.45973 
   37200    299.40614   -75.553765    122639.09   -37674.644    3654.6763   -41329.321    704.60544 
   37250    295.41087     119.6788    122720.81   -37674.691    3605.9083     -41280.6    705.96854 
   37300    292.48822    -79.48051     123004.8   -37659.666    3570.2333   -41229.899    707.34361 
   37350    300.06449   -140.88511    123011.53   -37614.305    3662.7123   -41277.017    708.65278 
   37400    294.83397   -112.12493    122766.39   -37684.607    3598.8665   -41283.474    709.31092 
   37450    291.94082   -167.36475    122593.84    -37641.45    3563.5515   -41205.001    709.91769 
[...]
   90800    298.60558    281.81615     122848.5   -37595.389    3644.9042   -41240.293    1783.3245 
   90850    297.08939    428.65737    122850.12   -37614.514     3626.397   -41240.911    1782.9662 
   90900    297.03977    5.5342171    122887.84   -37598.886    3625.7914   -41224.677    1782.7532 
   90950    296.16817   -35.212405    122925.37   -37601.438    3615.1522    -41216.59    1784.7022 
   91000    299.86123    -99.17629    122963.78   -37593.223    3660.2313   -41253.455    1786.0526 
   91050    294.00127   -268.01102    123003.17   -37624.533    3588.7021   -41213.235    1786.7226 
   91100    300.49665   -205.53463    123009.63   -37605.954    3667.9874   -41273.942    1787.7084 
   91150    297.27235    73.707428    122979.81   -37599.798    3628.6303   -41228.428    1789.5822 
   91200    299.29553   -85.675613    122937.91   -37607.669    3653.3261   -41260.996    1788.9909 
   91250    296.61677    103.18151    122871.39   -37591.886     3620.628   -41212.514    1788.6257 
   91300    299.63105     -18.5704    122816.21   -37586.638    3657.4216    -41244.06    1790.1912 
   91350    300.96726    522.92669    122766.68    -37606.67    3673.7319   -41280.402    1790.2628 
   91400    294.75035    223.77989    122746.68   -37601.621    3597.8458   -41199.467    1790.4805 
   91450    296.16642    408.19491    122749.39   -37603.014    3615.1309   -41218.145    1790.7336 
   91500     301.3218   -159.16029    122785.93   -37616.121    3678.0596   -41294.181    1791.8023 
   91550     298.2884    30.472803     122829.9   -37596.727    3641.0327    -41237.76    1793.8174 
   91600    298.23697   -443.68809    122869.03   -37610.881    3640.4049   -41251.286    1794.5783 
   91650    302.02752    372.74672     122880.4   -37597.532    3686.6739   -41284.206    1795.6905 
   91700    299.89524    174.06636    122935.97    -37602.37    3660.6464   -41263.016    1797.0302 
   91750    301.47208    69.509896    123025.67   -37597.311     3679.894   -41277.205    1799.7408 
   91800    301.18989   -324.77123    123110.22   -37586.882    3676.4494   -41263.331    1801.5947 
   91850    297.79374   -97.135421    123168.82   -37595.835    3634.9946    -41230.83    1803.0118 
   91900    297.18624    -466.6821    123209.88   -37589.474    3627.5793   -41217.053    1804.7982 
   91950    296.35072   -417.66293    123191.82   -37591.837    3617.3805   -41209.218    1806.1827 
   92000    298.61389   -344.04318    123105.55   -37597.958    3645.0057   -41242.963    1806.2328 
   92050    298.92774    346.52739    122978.15   -37621.565    3648.8367   -41270.401    1806.5854 
   92100    301.43259    254.81223    122874.49   -37608.413     3679.412   -41287.824    1807.0258 
   92150    297.54041    188.83592     122803.2   -37625.401    3631.9024   -41257.303    1807.4347 
   92200    303.54908     164.4991    122780.85   -37618.869    3705.2467   -41324.116    1809.4061 
   92250    301.54077    455.25441    122793.12   -37596.902    3680.7324   -41277.634    1810.1355 
   92300    303.86422    194.75783    122849.98   -37592.894    3709.0935   -41301.988    1812.0276 
   92350    300.19986   -124.90888    122938.73   -37582.947    3664.3647   -41247.312     1813.414 
   92400    299.22429   -92.069563    123029.55     -37578.7    3652.4565   -41231.156     1814.688 
   92450    300.70022   -175.28265    123107.14   -37581.922    3670.4723   -41252.395    1816.6109 
   92500    297.47981   -320.50036    123164.91   -37602.994    3631.1626   -41234.157    1819.3117 
   92550    293.28548    83.316774    123204.66   -37617.772    3579.9649   -41197.737    1820.7208 
   92600    298.47414   -386.23367    123237.46    -37632.29    3643.2999   -41275.589    1821.9146 
   92650    293.84678   -274.27399    123205.21   -37608.628    3586.8164   -41195.444    1823.5622 
   92700    301.20032    137.65818    123130.49   -37603.727    3676.5767   -41280.304    1823.6832 
   92750    300.71264    -96.54969    123049.52   -37600.943    3670.6239   -41271.567    1823.8353 
   92800    297.68703   -74.326333    122947.66   -37609.869    3633.6921   -41243.561    1825.5284 
   92850    300.53085    172.17723    122835.58   -37579.415    3668.4049    -41247.82    1826.7651 
   92900    298.01702    405.36922    122758.51   -37576.285      3637.72   -41214.005    1826.9293 
   92950    296.23514    311.49355    122727.92   -37560.924    3615.9697   -41176.894    1827.5911 
   93000    299.60892     145.2612    122730.71   -37542.361    3657.1515   -41199.513     1828.258 
   93050    298.45628    240.88698    122769.08    -37515.29    3643.0818   -41158.372    1830.4819 
   93100    301.04514   -442.25381    122831.61   -37524.712    3674.6825   -41199.395    1831.7895 
   93150    298.75724   -245.54572    122875.05   -37535.033    3646.7555   -41181.789    1834.0347 
   93200    300.61678   -251.57881    122885.23   -37539.247    3669.4539   -41208.701    1835.8993 
   93250    304.17181    14.429154    122873.79   -37554.026    3712.8479   -41266.874    1836.4363 
   93300    297.71094    214.06838    122873.72   -37541.465    3633.9839   -41175.449    1837.1164 
   93350    301.50741   -200.09431    122901.14   -37543.908    3680.3252   -41224.233    1838.0141 
   93400    301.95743    99.111061    122935.73   -37536.258    3685.8184   -41222.076    1839.8309 
   93450    301.44288  -0.24076548    122982.92   -37531.553    3679.5376    -41211.09     1840.995 
   93500    302.35758    -14.80996    123023.92   -37521.888    3690.7027    -41212.59    1844.2348 
   93550    299.62432    49.656589    123067.28   -37526.974    3657.3394   -41184.314    1846.8389 
   93600    299.13981   -161.80763     123119.8   -37516.884    3651.4253    -41168.31    1847.6086 
   93650     302.0828   -62.433817    123162.61     -37492.9    3687.3487   -41180.249    1848.4669 
   93700    298.10342    105.02222    123177.36   -37474.677    3638.7747   -41113.452    1849.5191 
   93750    303.48594   -271.65064    123180.72   -37488.848    3704.4759   -41193.324    1850.7481 
   93800    304.40314   -517.80783    123174.57   -37514.755    3715.6717   -41230.427    1851.1163 
   93850    298.88615    154.18427    123134.84   -37507.656    3648.3291   -41155.985    1850.1809 
   93900    300.70335    3.0330065    123089.48   -37517.084    3670.5106   -41187.595     1849.297 
   93950    302.31379   -35.508219    123042.09   -37509.194    3690.1683   -41199.362    1850.2956 
   94000    306.53624     88.66842    122993.21   -37517.839    3741.7092   -41259.549     1851.505 
   94050    297.12867   -77.877521    122967.38   -37561.971    3626.8765   -41188.847    1853.0511 
   94100    299.60641   -31.084191    122955.82   -37578.506    3657.1208   -41235.626      1854.18 
   94150     298.8235   -212.01721    122944.05   -37588.097    3647.5643   -41235.661    1856.2282 
   94200     295.4493    80.557542    122926.46   -37593.113    3606.3774    -41199.49    1857.2165 
   94250    304.46424   -161.24945    122903.96   -37569.513    3716.4175    -41285.93    1857.8232 
   94300    302.90131   -234.28614    122868.02   -37570.744    3697.3398   -41268.084    1859.5039 
   94350     299.3089   -21.842536    122810.45   -37574.079    3653.4892   -41227.568    1858.6943 
   94400    295.57416    152.11424     122753.4   -37578.843    3607.9015   -41186.744    1860.1728 
   94450    295.84909    63.443394    122709.03   -37580.203    3611.2575   -41191.461    1861.0886 
   94500    297.45038   -286.62311    122673.24   -37575.988    3630.8035   -41206.791    1861.9086 
   94550    298.73158   -233.27008    122607.45    -37584.19    3646.4423   -41230.632    1862.5298 
   94600    303.33671    38.722798    122529.51   -37572.425    3702.6545   -41275.079    1862.8485 
   94650    300.06728    371.05333    122457.25   -37585.449    3662.7464   -41248.196    1864.0722 
   94700    307.37527    425.52566    122435.95   -37579.128    3751.9508   -41331.079    1865.7975 
   94750    299.50904    43.588733    122469.83   -37596.293    3655.9322   -41252.225    1867.2713 
   94800    294.68542    276.98757    122535.53   -37629.444    3597.0532   -41226.498    1867.9967 
   94850    297.84467    59.267069    122639.67   -37635.601    3635.6163   -41271.217    1870.2285 
   94900     298.4363   -52.121812    122759.36   -37644.674    3642.8379   -41287.512    1873.5295 
   94950    298.34979   -3.8505683     122897.9   -37635.392    3641.7819   -41277.174    1875.4708 
   95000    299.16329   -335.10336    123050.97   -37640.282    3651.7119   -41291.994    1877.8402 
   95050    299.54382   -343.53537     123152.5   -37665.808    3656.3568   -41322.165    1880.9288 
   95100    295.75947   -140.03091    123184.87   -37651.733    3610.1635   -41261.896    1883.5936 
   95150    294.40855   -172.79508    123185.32   -37665.305    3593.6735   -41258.979     1884.509 
   95200    298.69759   -343.94204    123157.58   -37639.336    3646.0274   -41285.363    1884.8525 
   95250    294.91348   -301.84746       123086   -37665.303     3599.837    -41265.14    1884.0815 
   95300     298.6074   -283.64319    122961.04    -37657.06    3644.9265   -41301.986    1884.0395 
   95350    294.67614    34.527195    122814.79   -37680.767    3596.9398   -41277.707    1884.1341 
   95400    300.45242    79.988199    122684.62   -37656.892    3667.4476    -41324.34    1883.9539 
   95450      295.889    83.453265    122558.18       -37653    3611.7446   -41264.744    1883.2926 
   95500    300.88629     228.3064    122435.91   -37636.836    3672.7436    -41309.58    1883.6078 
   95550     299.6223    277.81291    122340.24   -37634.807    3657.3148   -41292.122    1883.5119 
   95600    297.75877    98.207506    122283.42   -37619.694    3634.5677   -41254.262    1884.1918 
   95650    297.15451    402.11091    122259.85   -37628.123    3627.1919   -41255.315    1884.9803 
   95700    298.98564    454.64466    122309.04   -37615.412    3649.5435   -41264.956    1887.0072 
   95750    300.69783   -41.402836    122425.13   -37608.336    3670.4432   -41278.779    1889.3396 
   95800    307.57895    65.685621    122549.42   -37588.389     3754.437   -41342.826    1891.5285 
   95850    302.23873   -134.44628    122706.58   -37608.717     3689.252   -41297.969    1893.6574 
   95900    299.32608   -297.79035    122872.39   -37605.344     3653.699   -41259.043    1896.5523 
   95950    300.60181   -194.79192    123024.89    -37600.41    3669.2711   -41269.681    1899.2013 
   96000    296.16506    -182.6179    123155.42   -37587.125    3615.1143   -41202.239    1900.8801 
   96050    294.06721   -284.70053    123252.68   -37585.063     3589.507    -41174.57    1903.2863 
   96100    295.25679   -117.10877    123310.39   -37584.746    3604.0275   -41188.773    1905.2212 
   96150    298.54368   -118.02416    123340.24    -37613.15    3644.1487   -41257.299      1906.49 
   96200    300.44081   -121.16624    123349.51   -37612.274    3667.3058    -41279.58    1907.6821 
   96250    298.24055    79.202177    123333.48   -37609.573    3640.4486   -41250.021    1908.0806 
   96300    297.92743   -256.67581    123311.33   -37603.001    3636.6265   -41239.627    1908.3081 
   96350    296.73875   -51.269561    123261.78   -37592.693    3622.1169    -41214.81    1907.5369 
   96400    298.35281    40.699817     123200.2   -37603.002    3641.8189   -41244.821    1907.8109 
   96450    298.88268     7.838834    123152.52   -37612.011    3648.2867   -41260.297    1909.7732 
   96500    301.57257   -316.14196    123090.03   -37593.463    3681.1206   -41274.584     1909.273 
   96550    302.07259   -44.020508    122995.78   -37604.046     3687.224    -41291.27    1908.6422 
   96600    294.41416    96.958528    122898.74   -37618.276     3593.742   -41212.018    1908.2676 
   96650    299.94826    79.995039    122814.32   -37645.606    3661.2936     -41306.9    1907.8629 
   96700    294.50768   -88.785108    122739.22   -37653.545    3594.8836   -41248.429    1908.0914 
   96750    293.25276    156.90415    122656.59   -37656.789    3579.5655   -41236.354    1908.8922 
   96800    294.00428    58.937344    122568.77   -37669.593    3588.7389   -41258.332    1909.0445 
   96850    295.30229    93.382729    122475.03   -37695.003    3604.5829   -41299.586    1908.7949 
   96900    301.96609   -131.95926    122380.42   -37682.561    3685.9241   -41368.485    1908.6164 
   96950    297.94779     420.3815    122304.74   -37675.508     3636.875   -41312.383     1907.818 
   97000    303.25393    611.57131    122286.13   -37657.574    3701.6439   -41359.218    1908.4793 
   97050    295.60561    311.38095    122350.01   -37645.834    3608.2854   -41254.119     1910.743 
   97100    295.35931     168.5072    122474.29   -37638.994    3605.2789   -41244.273    1912.7977 
   97150    292.92712   -298.37862     122618.9   -37651.568    3575.5906   -41227.158    1916.2027 
   97200    297.27554    147.87495    122738.56   -37646.089    3628.6692   -41274.759    1920.8923 
   97250    301.50591   -294.96911    122877.56   -37631.553     3680.307    -41311.86    1924.0335 
   97300     292.0232   -321.63188    122995.47   -37625.717     3564.557   -41190.274    1927.5141 
   97350    298.55428   -458.99476    123070.87   -37606.363    3644.2781   -41250.641    1930.1839 
   97400    300.22444   -520.50538     123094.1   -37601.295    3664.6648    -41265.96     1931.255 
   97450    300.23126   -82.230793    123065.96   -37575.903     3664.748   -41240.651    1932.3002 
   97500    299.60321   -265.03061    123017.66   -37580.884    3657.0818   -41237.966     1933.156 
   97550     302.3802   -99.176353       122948   -37584.802    3690.9788    -41275.78    1933.7322 
   97600    300.68583    94.545418    122871.29   -37573.805    3670.2967   -41244.102    1933.2159 
   97650    301.84893     71.70163    122785.59   -37560.993     3684.494   -41245.487    1933.5708 
   97700    299.40992    436.48908    122693.83   -37557.052    3654.7224   -41211.775    1933.4964 
   97750    299.95816     412.0092    122645.52   -37554.274    3661.4144   -41215.689    1933.8035 
   97800    300.29797   -1.1146714    122655.03   -37571.148    3665.5623    -41236.71    1934.1856 
   97850    301.02472    14.758628    122660.41   -37581.117    3674.4332    -41255.55    1935.8473 
   97900    297.00355     153.0602    122670.39   -37562.335    3625.3492   -41187.685    1936.2411 
   97950    300.90371   -187.38632     122684.3   -37562.651    3672.9562   -41235.607     1937.814 
   98000    299.71798   -103.60985    122674.15   -37542.206    3658.4827   -41200.689     1939.088 
   98050    300.95962    80.804496    122643.17   -37550.354    3673.6387   -41223.992    1940.2729 
   98100    302.76101    320.50247    122626.25   -37556.582    3695.6272    -41252.21    1941.3185 
   98150    300.82952   -137.65606    122652.56   -37562.099    3672.0506   -41234.149    1942.3113 
   98200    297.52952   -58.567422    122687.24   -37553.384    3631.7695   -41185.154    1944.0739 
   98250    305.07626   -93.352938    122717.15   -37525.344    3723.8881   -41249.233     1943.236 
   98300    304.50433   -287.48012    122727.84   -37497.112    3716.9069   -41214.019    1944.0603 
   98350    303.37065    25.453828     122709.1   -37497.088    3703.0687   -41200.157    1945.4286 
   98400    300.64577   -31.321305     122683.8   -37481.314    3669.8077   -41151.122    1945.9912 
   98450    303.13062    266.04176     122665.5   -37509.848    3700.1388   -41209.987     1947.438 
   98500    297.78844    335.75747     122683.6   -37522.194    3634.9299   -41157.124    1946.8074 
   98550    298.84044   -23.440658    122744.71   -37536.254    3647.7711   -41184.025    1948.2258 
   98600    297.80004    134.71271    122835.18   -37526.456    3635.0715   -41161.527    1949.7959 
   98650    305.81342   -305.03209    122935.18   -37508.116    3732.8862   -41241.002    1950.7822 
   98700     302.0232   -253.01561    123002.83   -37496.333    3686.6212   -41182.954    1952.2658 
   98750    296.67664   -108.83294    123035.56   -37485.019    3621.3589   -41106.378    1953.3606 
   98800    301.24007    35.706249    123049.59   -37489.787    3677.0619   -41166.849    1952.7774 
   98850    298.08511    76.476609     123062.5    -37511.19    3638.5512   -41149.741     1952.903 
   98900    301.88834   -73.646821     123065.1   -37504.479     3684.975   -41189.454    1954.3506 
   98950    296.45453   -146.04014    123045.67   -37502.874    3618.6477   -41121.522    1955.7372 
   99000    306.11744   -336.83614    123004.73   -37488.217    3736.5972   -41224.814     1957.432 
   99050    298.01212   -12.986009    122937.12   -37507.197    3637.6603   -41144.858      1957.93 
   99100    304.07111   -111.91201    122852.95    -37527.32    3711.6188   -41238.939    1958.7498 
   99150    299.45082    275.47033    122754.92   -37538.943    3655.2216   -41194.165    1958.8252 
   99200    299.31713    122.33172    122686.23   -37554.953    3653.5898   -41208.543    1959.6488 
   99250    300.34604    454.34962    122657.45   -37580.608    3666.1491   -41246.757      1962.38 
   99300    301.86433    150.84042    122703.37   -37584.396     3684.682   -41269.078    1963.7432 
   99350     296.8323    119.91981    122790.22   -37599.208    3623.2589   -41222.467    1965.4945 
   99400    300.47283   -431.20718    122859.11   -37641.597    3667.6967   -41309.294    1967.3123 
   99450    295.87582    80.010509    122872.61   -37631.044    3611.5837   -41242.628    1969.7505 
   99500    297.71059   -192.00527    122867.19   -37639.104    3633.9796   -41273.084    1971.1924 
   99550     296.0564    63.082336    122840.88   -37647.176     3613.788   -41260.964    1972.4303 
   99600    299.78606    -97.87314    122806.94   -37666.782    3659.3137   -41326.096    1974.3792 
   99650    292.84506    54.438847    122766.52    -37640.75    3574.5889   -41215.339    1975.5375 
   99700    298.62641    80.058646    122736.99   -37622.585    3645.1586   -41267.743    1976.3752 
   99750    300.48988     141.0394     122711.8   -37628.967    3667.9048   -41296.872    1977.0272 
   99800      300.784   -31.023953    122700.09     -37635.6     3671.495   -41307.095    1976.7706 
   99850    297.72253    96.438249    122722.07   -37654.339    3634.1254   -41288.464    1978.3851 
   99900    294.97108   -6.8693263    122764.16   -37653.952      3600.54   -41254.492    1979.4495 
   99950     294.8332    56.500039    122797.52    -37635.45     3598.857   -41234.307    1980.7908 
  100000     296.0654    48.677273     122815.8   -37643.696    3613.8978   -41257.594    1981.3765 
Loop time of 1470.34 on 1 procs for 100000 steps with 4096 atoms

Performance: 29.381 ns/day, 0.817 hours/ns, 68.012 timesteps/s
100.0% CPU use with 1 MPI tasks x no OpenMP threads

MPI task timing breakdown:
Section |  min time  |  avg time  |  max time  |%varavg| %total
---------------------------------------------------------------
Pair    | 1414.5     | 1414.5     | 1414.5     |   0.0 | 96.20
Neigh   | 42.146     | 42.146     | 42.146     |   0.0 |  2.87
Comm    | 1.92       | 1.92       | 1.92       |   0.0 |  0.13
Output  | 0.32062    | 0.32062    | 0.32062    |   0.0 |  0.02
Modify  | 10.221     | 10.221     | 10.221     |   0.0 |  0.70
Other   |            | 1.203      |            |       |  0.08

Nlocal:    4096 ave 4096 max 4096 min
Histogram: 1 0 0 0 0 0 0 0 0 0
Nghost:    3968 ave 3968 max 3968 min
Histogram: 1 0 0 0 0 0 0 0 0 0
Neighs:    0 ave 0 max 0 min
Histogram: 1 0 0 0 0 0 0 0 0 0
FullNghs:  137140 ave 137140 max 137140 min
Histogram: 1 0 0 0 0 0 0 0 0 0

Total # of neighbors = 137140
Ave neighs/atom = 33.4814
Neighbor list builds = 7396
Dangerous builds = 0
write_restart   prod.${NAME}-p1t${TEMP}.rst
write_restart   prod.liquid_msd-p1t${TEMP}.rst
write_restart   prod.liquid_msd-p1t300.rst

Total wall time: 1:13:43
