
# Create simulation box of size 50 x 50 x 50 Angstrom
#
lattice	            sc 1
Lattice spacing in x,y,z = 1.0000000 1.0000000 1.0000000
region 	            all block 0 50 0 50 0 50 units box
create_box          1 all
Created orthogonal box = (0.0000000 0.0000000 0.0000000) to (50.000000 50.000000 50.000000)
  1 by 2 by 3 MPI processor grid

# fill box with 4169 randomly distributed atoms
#
create_atoms        1 random 4169 63782 all
Created 4169 atoms
  create_atoms CPU = 0.000 seconds
mass                1 18.015

# Define potential
#
pair_style          sw
pair_coeff          * * mW_real.sw mW
Reading sw potential file mW_real.sw with DATE: 2019-02-27

# Run minimization
#
minimize            1.0e-8 1.0e-8 10000 1000
WARNING: Using 'neigh_modify every 1 delay 0 check yes' setting during minimization (../min.cpp:187)
Neighbor list info ...
  update every 1 steps, delay 0 steps, check yes
  max neighbors/atom: 2000, page size: 100000
  master list distance cutoff = 6.3065
  ghost atom cutoff = 6.3065
  binsize = 3.15325, bins = 16 16 16
  1 neighbor lists, perpetual/occasional/extra = 1 0 0
  (1) pair sw, perpetual
      attributes: full, newton on
      pair build: full/bin/atomonly
      stencil: full/bin/3d
      bin: standard
Per MPI rank memory allocation (min/avg/max) = 4.260 | 4.262 | 4.266 Mbytes
Step Temp E_pair E_mol TotEng Press 
       0            0    4900160.9            0    4900160.9    3723672.9 
     710            0   -47132.294            0   -47132.294   -728.65721 
Loop time of 1.83851 on 6 procs for 710 steps with 4169 atoms

98.7% CPU use with 6 MPI tasks x no OpenMP threads

Minimization stats:
  Stopping criterion = max force evaluations
  Energy initial, next-to-last, final = 
      4900160.86673089  -47132.1393790795  -47132.2936809525
  Force two-norm initial, final = 1.2605426e+08 2.7266892
  Force max component initial, final = 68346525.0 1.1006115
  Final line search alpha, max atom move = 0.10767057 0.11850347
  Iterations, force evaluations = 710 1001

MPI task timing breakdown:
Section |  min time  |  avg time  |  max time  |%varavg| %total
---------------------------------------------------------------
Pair    | 1.5042     | 1.6095     | 1.698      |   4.9 | 87.54
Neigh   | 0.043084   | 0.043546   | 0.043915   |   0.1 |  2.37
Comm    | 0.075288   | 0.16348    | 0.26868    |  15.5 |  8.89
Output  | 0          | 0          | 0          |   0.0 |  0.00
Modify  | 0          | 0          | 0          |   0.0 |  0.00
Other   |            | 0.022      |            |       |  1.20

Nlocal:        694.833 ave         704 max         679 min
Histogram: 1 0 0 0 0 1 1 0 2 1
Nghost:        1599.83 ave        1625 max        1573 min
Histogram: 1 0 0 1 0 2 0 1 0 1
Neighs:        0.00000 ave           0 max           0 min
Histogram: 6 0 0 0 0 0 0 0 0 0
FullNghs:      22862.3 ave       23497 max       21934 min
Histogram: 1 0 0 0 1 0 1 2 0 1

Total # of neighbors = 137174
Ave neighs/atom = 32.903334
Neighbor list builds = 42
Dangerous builds = 0

# Add velocity/set timestep
#
velocity            all create ${TEMP} 120598 rot yes dist gaussian
velocity            all create 273 120598 rot yes dist gaussian
timestep            5.0

# Define output
#
compute	            1 all msd
thermo	            100
thermo_style        custom step temp press vol etotal ke pe c_1[4] density

# Neighbor lists
#
neigh_modify        delay 0 every 1 check yes

# Set fixes
#
fix                 1 all momentum 10 linear 1 1 1 rescale
fix                 2 all nve
fix                 3 all temp/csvr ${TEMP} ${TEMP} 500.0 928347
fix                 3 all temp/csvr 273 ${TEMP} 500.0 928347
fix                 3 all temp/csvr 273 273 500.0 928347
fix                 4 all press/berendsen iso ${PRES} ${PRES} 1000.0 modulus 20000
fix                 4 all press/berendsen iso 1 ${PRES} 1000.0 modulus 20000
fix                 4 all press/berendsen iso 1 1 1000.0 modulus 20000

# Run 0.5 ns equilibration
#
dump                1 all custom 1000 eq.${NAME}.dump id type x y z vx vy vz
dump                1 all custom 1000 eq.liquid_273K_1atm_mW.dump id type x y z vx vy vz
run                 100000
Per MPI rank memory allocation (min/avg/max) = 3.510 | 3.513 | 3.516 Mbytes
Step Temp Press Volume TotEng KinEng PotEng c_1[4] Density 
     710          273    511.70207       125000   -43740.537    3391.7564   -47132.294 1.9461438e-33   0.99771203 
     800    182.48153    206.71904    126051.38   -42405.946    2267.1535     -44673.1   0.41272429   0.98939024 
     900     213.4716    -18.87872     126274.3   -41523.214    2652.1747   -44175.388   0.84553928   0.98764362 
    1000    231.84885    26.946259    126213.41   -40908.761    2880.4939   -43789.255    1.3152926   0.98812004 
    1100    245.71551   -99.202401    126084.83   -40466.276    3052.7735   -43519.049    1.8754937   0.98912778 
    1200    251.00991    -42.50018    125887.34   -40177.032    3118.5512   -43295.583    2.5369864   0.99067947 
    1300    256.77695   -230.35256    125509.71   -40137.134     3190.201   -43327.335    3.3338957   0.99366019 
    1400    253.80622   -79.956526    125223.76   -39977.349    3153.2926   -43130.641    4.2046516   0.99592924 
    1500    254.07781    79.041608    125111.94   -39870.227    3156.6668   -43026.894    5.0935447    0.9968194 
    1600    261.74992    65.029837    124970.91   -39679.347    3251.9853   -42931.332    6.1564085    0.9979443 
    1700    267.43936    50.019665    125355.91   -39480.432    3322.6709   -42803.103     7.213744   0.99487931 
    1800    263.54843   -56.419439    125133.78    -39472.88      3274.33    -42747.21     8.392976   0.99664536 
    1900    262.08229    224.89876    125146.41   -39470.823    3256.1146   -42726.938    9.5531801    0.9965448 
    2000    269.47451   -174.17169    125128.32   -39391.933    3347.9557   -42739.889     10.62218   0.99668886 
    2100    268.51458    56.745047    124915.39    -39290.55    3336.0295   -42626.579    11.853234   0.99838781 
    2200    267.21536   -291.94633    124939.09   -39253.385     3319.888   -42573.273    13.114137   0.99819841 
    2300    279.88131   -188.30361    124729.31   -39240.331      3477.25   -42717.581    14.270499   0.99987728 
    2400    271.78131   -31.274921    124544.54     -39215.7    3376.6154   -42592.315    15.708625    1.0013607 
    2500    277.62438   -118.29272    124245.07   -39228.999    3449.2099   -42678.209    16.959348    1.0037743 
    2600      276.387   -39.277935    124180.29   -39119.547    3433.8366   -42553.384    18.248705    1.0042979 
    2700    278.12692    219.33649    124081.18   -39041.048    3455.4534   -42496.501    19.795128    1.0051001 
    2800    275.42244     77.85765    124259.01   -39036.333    3421.8529   -42458.186    21.370253    1.0036617 
    2900    272.84463   -174.99297    124376.33   -39023.621    3389.8261   -42413.447    22.882556     1.002715 
    3000    273.11007    179.66176    124278.52   -39080.592     3393.124   -42473.716    24.356415    1.0035041 
    3100    276.38117   -29.556186    124435.24   -39114.835    3433.7641   -42548.599    25.946217    1.0022403 
    3200    275.77126   -49.774223    124479.25    -39085.56    3426.1866   -42511.747    27.389925    1.0018859 
    3300    276.21187    246.16359    124562.48   -39161.265    3431.6608   -42592.926    28.802452    1.0012165 
    3400    276.03826   -135.55484    124447.29   -39140.469    3429.5038   -42569.973    30.249123    1.0021432 
    3500    274.94969   -128.88097    124641.15   -39171.943    3415.9794   -42587.922    31.314379    1.0005845 
    3600    271.48186    67.516511    124544.63    -39234.33     3372.895   -42607.225     32.45184      1.00136 
    3700    272.74007   -189.41441    124461.65   -39296.876    3388.5271   -42685.403    33.667752    1.0020275 
    3800    267.07865     101.7872    124388.02    -39314.83    3318.1895   -42633.019    34.788011    1.0026207 
    3900    273.18726     75.70167    124494.73   -39275.493     3394.083   -42669.576    35.941908    1.0017613 
    4000    271.51445     4.810995    124571.14   -39252.667       3373.3   -42625.967    37.213663    1.0011469 
    4100    273.38719    22.410692    124604.26   -39302.845    3396.5669   -42699.412    38.433572    1.0008807 
    4200    276.02247   -238.31745    124406.66   -39233.938    3429.3076   -42663.246    39.630287    1.0024705 
    4300    268.45868    76.067227     124373.1   -39253.596     3335.335   -42588.931    40.866315     1.002741 
    4400    267.60304    126.19941     124308.6   -39245.951    3324.7046   -42570.656     42.41173    1.0032613 
    4500    269.71067    42.223778    124498.31   -39217.474    3350.8898   -42568.364    43.665657    1.0017325 
    4600    266.68206   -31.853557    124342.52   -39227.813    3313.2623   -42541.075    44.812408    1.0029876 
    4700    270.00268   -106.23051    124415.43   -39282.507    3354.5177   -42637.025    46.593057    1.0023998 
    4800    271.72911   -53.340421    124390.66   -39198.952    3375.9669   -42574.919    47.917419    1.0025994 
    4900    272.83522    12.831957    124414.18   -39205.968    3389.7092   -42595.677    49.374106    1.0024099 
    5000    277.54724    22.597295     124499.3   -39077.258    3448.2514   -42525.509    50.801868    1.0017245 
    5100    277.00875    116.72152    124764.03   -39030.131    3441.5612   -42471.692    52.371631     0.999599 
    5200    276.62176   -92.669708     124607.9   -39113.155    3436.7532   -42549.909    53.930086    1.0008515 
    5300    271.63283   -52.867948    124642.18   -39180.615    3374.7708   -42555.385    55.468246    1.0005762 
    5400    275.15586   -63.774887     124669.7   -39180.919    3418.5409    -42599.46    56.976322    1.0003554 
    5500    271.43829    39.189128    124670.56   -39187.821    3372.3538   -42560.175    58.542832    1.0003484 
    5600    271.36828    10.528061    124675.38   -39209.854    3371.4839   -42581.338    59.927629    1.0003098 
    5700    271.04274    19.455361    124560.14   -39184.858    3367.4395   -42552.297    61.507653    1.0012352 
    5800     267.7561   -122.65227    124508.63   -39175.465    3326.6062   -42502.071    62.632681    1.0016495 
    5900    271.40315    46.840243    124387.39   -39163.803    3371.9171    -42535.72    63.924675    1.0026257 
    6000    270.16543    94.513915    124538.53   -39240.427    3356.5398   -42596.966     65.13118     1.001409 
    6100    269.28574    57.612844     124352.9   -39195.251    3345.6104   -42540.862    66.262366    1.0029039 
    6200    270.70299   -220.01972    124434.57   -39214.513    3363.2183   -42577.731     67.56791    1.0022457 
    6300    270.23326       31.486     124538.4   -39247.781    3357.3824   -42605.163    68.718949      1.00141 
    6400    272.38329   -218.66601    124469.43   -39200.522    3384.0944   -42584.616    69.905653    1.0019649 
    6500    274.69445    114.49867    124628.49   -39093.431    3412.8083    -42506.24    71.326621    1.0006861 
    6600    276.41356   -186.60702    124368.59   -39104.231    3434.1666   -42538.397    72.891339    1.0027774 
    6700    270.14407   -20.186344    124211.71   -39220.445    3356.2743   -42576.719    74.463487    1.0040439 
    6800    268.27557   -90.505293    124241.24   -39260.166      3333.06   -42593.226    76.302959    1.0038052 
    6900    275.00134   -159.55018    124180.74   -39175.088    3416.6211   -42591.709    77.932708    1.0042943 
    7000    273.57117    99.066291    124383.18   -39089.301    3398.8527   -42488.153    79.573144    1.0026597 
    7100    275.46259    107.34798    124394.73   -39094.711    3422.3518   -42517.062    81.681714    1.0025666 
    7200    271.40434   -61.913055    124681.82   -39134.867     3371.932   -42506.799     83.53753    1.0002581 
    7300     272.5251    65.530667    124452.08   -39195.688    3385.8562   -42581.544    84.753609    1.0021046 
    7400    273.19318   -239.74186     124268.9    -39219.45    3394.1565   -42613.606    86.180234    1.0035817 
    7500    271.90214   -8.8386389    124077.76   -39220.153    3378.1166    -42598.27    87.773682    1.0051278 
    7600    268.85161    106.16793    124386.49   -39285.145    3340.2168   -42625.361    89.665328     1.002633 
    7700    268.70291   -111.52143    124375.88    -39314.89    3338.3693    -42653.26    90.642281    1.0027186 
    7800    272.99832    54.939576    124417.83   -39184.196    3391.7356   -42575.931     91.71559    1.0023805 
    7900    273.40893   -9.8968848    124618.72   -39142.511     3396.837   -42539.348    92.920168    1.0007646 
    8000    268.03374   -70.522032    124240.44   -39250.617    3330.0556   -42580.672    93.903559    1.0038117 
    8100    264.76534    58.401989    124243.57   -39253.721    3289.4489    -42543.17    95.309737    1.0037864 
    8200    268.00401    89.642729    124204.97   -39286.837    3329.6861   -42616.523    96.194197    1.0040984 
    8300    268.61234    248.28896    124147.17   -39340.314    3337.2441   -42677.559    96.990707    1.0045658 
    8400    271.82841    52.873005    124331.14    -39281.29    3377.2006    -42658.49    98.511671    1.0030794 
    8500    274.69887   -8.8746117    124351.53   -39224.349    3412.8632   -42637.212    100.04462    1.0029149 
    8600    272.56458   -53.669568    124223.62   -39215.826    3386.3468   -42602.173    101.40984    1.0039476 
    8700    272.29986   -68.695328    124316.22    -39169.41     3383.058   -42552.468    102.53635    1.0031997 
    8800    265.87734    350.10331    124567.98   -39210.057    3303.2645   -42513.321    104.28944    1.0011722 
    8900    266.62777    171.54833       124595   -39217.868    3312.5878   -42530.455    105.36892    1.0009551 
    9000    274.47933   -121.05653    124213.35   -39255.699    3410.1357   -42665.835    106.60267    1.0040306 
    9100    269.65498   -52.172343    124169.48   -39247.872    3350.1979   -42598.069    107.93564    1.0043853 
    9200     269.2211    107.35438    124115.64   -39331.901    3344.8073   -42676.709    109.43523     1.004821 
    9300    276.62629   -55.125086    124371.47    -39196.06    3436.8096   -42632.869    110.74709    1.0027541 
    9400    269.50325    141.44776    124575.55   -39259.554    3348.3128   -42607.866    112.12657    1.0011114 
    9500    271.24704   -60.117903    124420.17   -39225.185    3369.9776   -42595.162    113.96825    1.0023617 
    9600    272.86737    109.04507    124403.73   -39173.364    3390.1087   -42563.472    115.52364    1.0024941 
    9700    274.12883    104.63114    124334.05   -39120.702     3405.781   -42526.483    116.72924    1.0030559 
    9800    275.24817   -37.427214    124236.76    -39116.32    3419.6878   -42536.008    117.84586    1.0038414 
    9900    270.97912    282.76044     124291.2   -39179.122     3366.649   -42545.771    118.98004    1.0034017 
   10000    272.08841   -51.311768    124399.16   -39228.868    3380.4308   -42609.299    120.44922    1.0025309 
   10100    271.99961   -106.85743    124252.38   -39257.238    3379.3275   -42636.565    121.41115    1.0037152 
   10200    270.82542    157.70159    124114.43   -39234.348    3364.7395   -42599.087    122.59406    1.0048308 
   10300    274.58071    62.808211    124207.69   -39306.088    3411.3952   -42717.483     123.7315    1.0040763 
   10400    275.41432    73.796378    124147.13   -39245.477     3421.752   -42667.229    124.82026    1.0045661 
   10500    268.64981    -66.32008    124427.34   -39219.104    3337.7096   -42556.813    126.56988    1.0023039 
   10600    279.75292   -96.145852    124421.28   -39132.941    3475.6548   -42608.596    127.35676    1.0023527 
   10700    276.57015     29.95368     124313.2   -39067.427     3436.112   -42503.539    128.76714    1.0032242 
   10800    276.83345    76.089425    124394.75   -39087.562    3439.3833   -42526.946    129.70937    1.0025665 
   10900    276.68264   -3.0874293    124402.77   -39105.535    3437.5096   -42543.045    130.96052    1.0025018 
   11000    275.13355    36.038696    124645.26   -39074.133    3418.2636   -42492.396    132.71213    1.0005515 
   11100    276.23836     175.5315    124695.46   -39067.821    3431.9899   -42499.811    133.89473    1.0001487 
   11200    270.93332    180.43276    124597.73   -39142.208      3366.08   -42508.288    135.10415    1.0009332 
   11300    278.79838    -64.12843    124661.12   -39071.918    3463.7956   -42535.714     136.3836    1.0004242 
   11400    271.23854   -145.48463     124529.1   -39121.785    3369.8721   -42491.657    138.03544    1.0014848 
   11500    273.48223    265.38604    124517.65   -39087.213    3397.7477    -42484.96    138.89412    1.0015769 
   11600      271.684   -64.754591    124518.47   -39157.979    3375.4064   -42533.385    140.26219    1.0015703 
   11700    276.38545    -41.60409    124450.11   -39172.085    3433.8173   -42605.902    141.49046    1.0021205 
   11800    280.84438   -42.869052    124505.12   -39069.842    3489.2152   -42559.058    143.13456    1.0016777 
   11900    269.88883    68.469845    124553.59   -39165.088    3353.1032   -42518.191    145.11501    1.0012879 
   12000    271.58094    -210.7053    124523.74   -39185.081     3374.126   -42559.207    146.82839    1.0015279 
   12100    271.40853   -14.285902    124327.16   -39181.479     3371.984   -42553.463    148.30322    1.0031115 
   12200    275.41402    112.93695    124117.31   -39094.537    3421.7483   -42516.285    149.40574    1.0048075 
   12300    274.61943    146.32016    124357.96   -39105.835    3411.8763   -42517.711    150.87681    1.0028631 
   12400    271.76024   -3.0859663    124472.48   -39151.204    3376.3537   -42527.557     152.3456    1.0019404 
   12500    276.07465   -84.359511     124177.5   -39129.259    3429.9559   -42559.215    153.18666    1.0043204 
   12600    272.85844    276.39988     124281.7   -39211.803    3389.9978   -42601.801    154.30199    1.0034784 
   12700    272.04433   -40.592562    124580.37   -39102.478    3379.8832   -42482.362    155.65932    1.0010727 
   12800    275.35855    5.1312662     124526.4   -39038.793    3421.0591   -42459.852    157.14483    1.0015066 
   12900    269.34188   -2.9184443    124562.85   -39091.488    3346.3078   -42437.796    158.73288    1.0012134 
   13000    267.29183    69.502024    124757.71   -39162.326    3320.8381   -42483.164    160.43161   0.99964964 
   13100    278.05327    43.634911    124806.35   -39064.125    3454.5384   -42518.664    161.92788   0.99926008 
   13200    276.55881   -17.456216    124526.79   -39054.162    3435.9712   -42490.133     163.1104    1.0015034 
   13300    278.08285    70.665899    124502.72   -38989.445    3454.9059    -42444.35     164.1912     1.001697 
   13400    271.76042   -91.102504    124595.88   -39013.622    3376.3558   -42389.978    165.73489     1.000948 
   13500    275.68338     78.47767    124272.42    -39110.61    3425.0948   -42535.705    167.14174    1.0035534 
   13600    272.45138    21.697475     124562.7    -39191.59    3384.9404   -42576.531    169.06117    1.0012146 
   13700    271.63828   -54.426868    124427.07   -39229.557    3374.8384   -42604.395    170.88438     1.002306 
   13800    269.86427    117.61791    124435.71   -39173.029    3352.7981   -42525.828    172.44081    1.0022364 
   13900    274.86339    286.48941    124579.71   -39128.139    3414.9072   -42543.047    173.14059     1.001078 
   14000    268.16245    110.97982    124666.62   -39129.573    3331.6546   -42461.228    173.95735    1.0003801 
   14100    276.87305    58.276895    124817.29    -39116.65    3439.8753   -42556.525     174.6878   0.99917252 
   14200    271.32724   -22.411971    124683.47   -39182.411    3370.9741   -42553.385     175.2589    1.0002449 
   14300     276.4595   -189.59674    124595.47   -39187.372    3434.7373   -42622.109    176.56297    1.0009513 
   14400    268.25298    23.927254    124688.68   -39273.985    3332.7794   -42606.764    177.83216    1.0002031 
   14500    272.88318    110.65164    124678.28   -39256.626     3390.305   -42646.931    178.35438    1.0002865 
   14600    272.68286   -73.843599    124446.82   -39184.316    3387.8162   -42572.132    179.40201    1.0021469 
   14700    271.33321    63.579029    124201.67   -39178.877    3371.0483   -42549.925    180.19262     1.004125 
   14800    272.14881    -93.45439    124263.85   -39192.411    3381.1812   -42573.592    181.12142    1.0036225 
   14900    269.93062   -140.77724    124357.75   -39295.074    3353.6224   -42648.696      182.112    1.0028648 
   15000    271.44633   -123.33402    124303.19   -39299.266    3372.4536    -42671.72    183.11282     1.003305 
   15100    266.81183    64.449674    124395.31   -39314.785    3314.8745    -42629.66    184.74725     1.002562 
   15200    268.31431     197.5736    124200.07   -39312.123    3333.5414   -42645.665    185.71955     1.004138 
   15300    268.69801    -87.21964    124330.02   -39271.796    3338.3084   -42610.104    186.79123    1.0030884 
   15400    270.79487    61.521794    124466.79   -39244.419    3364.3599   -42608.779    188.59462    1.0019862 
   15500    272.47612      75.4109    124387.84   -39180.304    3385.2478   -42565.552    189.86082    1.0026221 
   15600    266.79024    69.271257       124597   -39220.418    3314.6063   -42535.024    190.92486    1.0009391 
   15700    269.74608   -154.96158    124711.07   -39145.978    3351.3297   -42497.307      192.776    1.0000235 
   15800    268.71133   -94.318085    124480.92   -39200.492     3338.474   -42538.966    194.10259    1.0018724 
   15900    269.02933     7.872123    124090.14   -39275.991    3342.4248   -42618.416    194.75777    1.0050275 
   16000     272.8469    410.98738    124426.48   -39300.021    3389.8544   -42689.875    195.98673    1.0023108 
   16100    270.34991   -145.45589    124605.95   -39226.773    3358.8317   -42585.605    197.59135    1.0008671 
   16200     266.0132   -134.45656    124447.24   -39210.219    3304.9524   -42515.171    198.36251    1.0021436 
   16300    267.66409   -76.180838    124414.88   -39241.779    3325.4631   -42567.242    199.31252    1.0024042 
   16400    272.13991      87.6389    124298.09    -39222.27    3381.0707   -42603.341    200.75381    1.0033461 
   16500    274.72912    248.00524    124558.81    -39103.09    3413.2391   -42516.329    202.15839    1.0012459 
   16600    273.37769   -25.430489    124689.92   -39122.361    3396.4489    -42518.81    203.85582    1.0001932 
   16700    273.35387   -54.371618    124726.06   -39165.428    3396.1529   -42561.581     205.3203   0.99990336 
   16800    277.56772   -125.89645    124590.91   -39144.524    3448.5058    -42593.03    206.84837     1.000988 
   16900    273.49558     31.05931    124665.52   -39115.032    3397.9135   -42512.946    207.91235    1.0003889 
   17000    270.05438    31.812126    124592.44   -39121.773      3355.16   -42476.933    209.30008    1.0009757 
   17100    277.00825   -192.64278     124539.6   -39112.544     3441.555   -42554.099    210.74243    1.0014004 
   17200    272.53242    83.765455    124393.24   -39006.991    3385.9473   -42392.938    211.97361    1.0025786 
   17300    277.65457   -120.15946    124183.91   -39033.374    3449.5849   -42482.959    213.28667    1.0042686 
   17400    276.64334    -44.28252    124056.56   -39108.965    3437.0214   -42545.986    214.53088    1.0052996 
   17500    273.25105    209.76677    123950.09   -39101.354    3394.8754    -42496.23    216.09438    1.0061631 
   17600    271.40901   -50.893447    124154.33   -39125.611    3371.9899     -42497.6    217.69422    1.0045079 
   17700    272.90601    182.10513    124210.46   -39088.864    3390.5887   -42479.452     219.0726     1.004054 
   17800    272.75342   -242.30537    124182.28   -39142.833     3388.693   -42531.526    220.24552    1.0042818 
   17900    276.01399    184.21281    124332.01    -39117.48    3429.2023   -42546.682    221.34311    1.0030724 
   18000    272.80615     -111.024    124564.58   -39083.347     3389.348   -42472.695    223.21015    1.0011996 
   18100    276.18829    164.21294    124528.92   -39031.531    3431.3678   -42462.899    224.73716    1.0014863 
   18200    270.60429  -0.49797565    124511.29    -39169.41    3361.9921   -42531.402    226.01605    1.0016281 
   18300    271.93741   -73.437716    124511.77   -39101.909    3378.5548   -42480.464    227.34071    1.0016242 
   18400    273.73775    74.954647    124412.46   -39085.963    3400.9223   -42486.886    228.97603    1.0024238 
   18500    272.45239    229.29303    124440.49   -39048.323    3384.9529   -42433.276     230.3675    1.0021979 
   18600     276.0174   -141.40234     124476.6   -39106.208    3429.2447   -42535.453    231.26553    1.0019072 
   18700    269.31947    65.173735    124338.15   -39143.532    3346.0294   -42489.562    232.30954    1.0030228 
   18800    269.80367    83.126031    124608.66   -39112.548    3352.0452   -42464.593    234.20259    1.0008454 
   18900    274.47494   -107.35022    124641.03   -39085.112    3410.0811   -42495.193    236.74098    1.0005854 
   19000    270.82539     27.70275     124695.9   -39149.619    3364.7391   -42514.358    238.20254    1.0001452 
   19100    274.86349   -94.656137    124738.23    -39108.08    3414.9085   -42522.988    239.32392   0.99980577 
   19200    272.67488    34.491333    124644.26   -39183.362    3387.7172   -42571.079    240.28244    1.0005595 
   19300    274.33293     25.99271    124403.19   -39125.382    3408.3167   -42533.698    241.09042    1.0024985 
   19400    278.20466   -183.32793     124466.9   -39119.705    3456.4192   -42576.124    242.20485    1.0019853 
   19500    277.16103   -48.866819    124438.16   -39120.078    3443.4531   -42563.532    243.05876    1.0022167 
   19600    277.65489     117.5006    124671.19   -39133.184    3449.5889   -42582.773    244.51064    1.0003434 
   19700    269.95675   -142.84139     124400.2   -39177.912    3353.9471   -42531.859     245.4057    1.0025225 
   19800     278.6669   -107.04517    124416.33   -39134.428    3462.1621    -42596.59    246.52806    1.0023925 
   19900    269.05568    99.006828    124452.26   -39189.107    3342.7522   -42531.859    247.71197    1.0021031 
   20000    275.09568   -145.54168    124509.57   -39196.964    3417.7932   -42614.757    248.91828    1.0016419 
   20100    269.88366   -45.148264    124398.08    -39195.52     3353.039   -42548.559    249.94055    1.0025396 
   20200    270.04291    58.905878    124462.78   -39213.501    3355.0176   -42568.518     251.1028    1.0020184 
   20300    273.26676   -81.598206    124625.62   -39192.877    3395.0707   -42587.948    252.40554    1.0007092 
   20400    275.66483    125.73642    124564.75   -39247.905    3424.8644   -42672.769    253.01372    1.0011982 
   20500    270.94831   -29.143514     124433.9   -39246.002    3366.2662   -42612.268     254.5283     1.002251 
   20600    272.33814   -182.77339    124343.44   -39247.078    3383.5335   -42630.611    255.75059    1.0029802 
   20700      267.892   -84.634344    124037.44   -39291.509    3328.2946   -42619.804    256.88355    1.0054545 
   20800     273.9862    124.02815    124313.47   -39163.287     3404.009   -42567.296    257.99845     1.003222 
   20900    276.74523   -84.297661    124250.53   -39154.007    3438.2873   -42592.294    259.37843    1.0037302 
   21000    270.87323    89.392462    124032.63   -39192.399    3365.3334   -42557.732    260.20106    1.0054935 
   21100    266.98908   -89.488152    124157.37   -39369.501    3317.0767   -42686.577    261.67781    1.0044833 
   21200    267.04773    20.219506    124417.52   -39377.217    3317.8053   -42695.022    263.53928     1.002383 
   21300    268.94009      -101.86    124448.76   -39304.813    3341.3161   -42646.129    264.76216    1.0021313 
   21400    267.35232    292.38934    124522.82   -39287.559    3321.5896   -42609.148    266.56192    1.0015353 
   21500    270.92772    -34.94331     124589.6   -39260.945    3366.0104   -42626.955    267.56218    1.0009985 
   21600    269.29307    21.926867    124580.09   -39265.623    3345.7015   -42611.324    269.25066    1.0010749 
   21700    271.56552    171.75942    124826.84   -39206.594    3373.9344   -42580.528    270.86637   0.99909606 
   21800    277.98583   -247.66115    124554.98   -39132.206    3453.7005   -42585.906    271.61658    1.0012768 
   21900    272.09534   -48.526335    124328.62   -39149.598    3380.5169   -42530.115     272.9138    1.0030997 
   22000    271.16952    94.415847    124382.68     -39161.5    3369.0145   -42530.515    275.08864    1.0026638 
   22100    267.89397    296.78933    124723.96    -39214.66     3328.319   -42542.979    276.89934   0.99992019 
   22200    272.72969   -58.614952    124778.31   -39178.914    3388.3981   -42567.312    278.97186   0.99948463 
   22300    274.18503   -40.383191     124394.3   -39114.279    3406.4793   -42520.759    279.71757    1.0025701 
   22400    278.80343   -107.45497    124312.81   -39097.704    3463.8583   -42561.563      280.269    1.0032273 
   22500    273.33242   -347.92529    124380.27   -39073.616    3395.8865   -42469.503    282.39752    1.0026832 
   22600    274.56561   -98.386779    124516.47   -39023.274    3411.2076   -42434.482    284.67714    1.0015864 
   22700    278.46289    80.710351    124578.87   -39025.744    3459.6275   -42485.372    286.10271    1.0010847 
   22800    277.78882   -192.62389    124609.12   -39052.296    3451.2528   -42503.548    287.94064    1.0008417 
   22900    279.23145    127.47657    124625.52   -39068.625    3469.1761   -42537.801    289.64994      1.00071 
   23000    277.06147    243.01365    124659.39   -39076.141    3442.2162   -42518.357    290.66086    1.0004381 
   23100    271.71188   -36.493206    124591.67   -39075.485    3375.7528   -42451.238     292.3377    1.0009819 
   23200    272.58701    164.95534     124845.9   -39146.725    3386.6255   -42533.351    294.54195   0.99894354 
   23300    271.36079   -206.51953    124732.45   -39151.929    3371.3909    -42523.32    295.96977   0.99985213 
   23400    273.48295    -224.0806    124748.32   -39133.895    3397.7566   -42531.652    297.71244   0.99972489 
   23500    273.27162    3.4407124    124808.27   -39096.163     3395.131   -42491.294    298.92138   0.99924467 
   23600    281.02665   -105.39422    124894.17   -39114.931    3491.4797    -42606.41    300.47438   0.99855742 
   23700    276.19635    76.344974    124936.68   -39156.935     3431.468   -42588.403    302.03374   0.99821765 
   23800    267.93024    94.037591    124773.37   -39244.299    3328.7697   -42573.068    302.96408   0.99952424 
   23900    266.05873    23.613652    124743.87   -39281.081     3305.518   -42586.599     304.4619   0.99976056 
   24000    273.14557    -2.987865    124790.51   -39265.623     3393.565   -42659.188    305.15702    0.9993869 
   24100    274.51659     69.57202     124961.7   -39201.772    3410.5986   -42612.371    306.35614   0.99801785 
   24200    270.60113    -254.1193     124830.8   -39236.822    3361.9528   -42598.775    307.48291   0.99906433 
   24300    271.33978    119.69886    124840.79   -39271.209    3371.1298   -42642.339    309.64871   0.99898442 
   24400    269.45544   -175.15832    124805.17   -39256.015    3347.7187   -42603.734    311.16743    0.9992695 
   24500    269.88756   -220.01845    124706.36    -39281.65    3353.0875   -42634.737    312.76335    1.0000613 
   24600    274.29956   -241.58323    124616.16   -39232.455    3407.9022   -42640.358     313.5204    1.0007852 
   24700    271.75139    183.10455    124504.06   -39240.616    3376.2437   -42616.859    314.29303    1.0016862 
   24800     272.3843   -14.558664    124524.03   -39224.677     3384.107   -42608.784    316.03789    1.0015256 
   24900    269.18421   -121.65064    124465.35   -39203.721     3344.349    -42548.07    317.40369    1.0019978 
   25000    274.55398    312.38279    124736.06   -39123.803    3411.0631   -42534.866    319.08327    0.9998232 
   25100    275.07265   -61.922071    124749.74   -39098.754    3417.5071   -42516.261    320.62257   0.99971357 
   25200    278.92825    70.977671    124666.56   -39138.908    3465.4091   -42604.317    321.44904    1.0003805 
   25300    274.93688    227.95918    124490.65   -39220.141    3415.8203   -42635.961    321.89255    1.0017942 
   25400    272.98532    56.569826    124780.09   -39190.922     3391.574   -42582.496    323.23451   0.99947035 
   25500    271.32563    54.482931    124572.68   -39193.031    3370.9541   -42563.985     323.3344    1.0011345 
   25600    269.83195    74.010341    124566.01   -39176.519    3352.3965   -42528.916    324.55612     1.001188 
   25700    275.57849   -43.041589    124576.11   -39166.616    3423.7916   -42590.407    325.43153    1.0011069 
   25800    273.58227    3.4440091    124536.66    -39216.46    3398.9906   -42615.451     326.6581     1.001424 
   25900     269.2561    5.8614562     124363.8   -39194.937    3345.2422   -42540.179    328.28901     1.002816 
   26000    274.40229    38.958124    124428.45    -39119.89    3409.1785   -42529.069    329.32247    1.0022949 
   26100    272.74157    44.654699    124827.09   -39073.725    3388.5457   -42462.271    331.79821   0.99909406 
   26200    272.53206   -18.096486    124762.43   -39121.079    3385.9428   -42507.022    332.74148   0.99961182 
   26300    274.79549   -12.920179    124614.66   -39128.944    3414.0637   -42543.008    333.72736    1.0007972 
   26400    276.78922   -92.333986    124558.45   -39151.395    3438.8338   -42590.229    335.02725    1.0012488 
   26500    273.22164    84.452762    124682.43   -39165.934    3394.5102   -42560.445    336.34964    1.0002533 
   26600    273.41819   -162.76465    124722.49   -39202.622     3396.952   -42599.574    337.87452   0.99993198 
   26700    276.89283   -257.86647    124581.01   -39260.938    3440.1211   -42701.059    338.96306    1.0010675 
   26800    267.29022    93.538782    124619.64   -39241.744     3320.818   -42562.562     340.4746    1.0007572 
   26900    273.86869   -130.54835    124649.36   -39176.351    3402.5491     -42578.9    342.54244    1.0005186 
   27000    272.82646   -233.50869    124900.76    -39190.24    3389.6004    -42579.84    343.35316   0.99850478 
   27100    269.23926    61.463163    124497.37   -39257.242     3345.033   -42602.275    343.39882    1.0017401 
   27200    269.63629    67.201412     124510.1   -39267.096    3349.9657   -42617.062    344.79205    1.0016376 
   27300    269.10535     79.64804    124489.35   -39251.595    3343.3693   -42594.965    346.45423    1.0018046 
   27400    270.67829   -89.766857    124485.86   -39295.886    3362.9114   -42658.798     347.0576    1.0018327 
   27500    279.18366   -147.10734    124573.66   -39178.072    3468.5824   -42646.654    348.58139    1.0011266 
   27600    275.20714     121.1536    124760.01   -39171.212     3419.178    -42590.39    349.71725   0.99963128 
   27700    270.07715    32.924513     124776.5   -39190.972    3355.4429   -42546.415     351.5635   0.99949911 
   27800    276.62527    35.453769    124534.25    -39199.39    3436.7969   -42636.187    352.10229    1.0014434 
   27900    279.28134    34.716351    124592.24   -39084.699     3469.796   -42554.495    353.69492    1.0009773 
   28000    270.04744   -193.23088    124380.05   -39192.439    3355.0738   -42547.513      354.593    1.0026849 
   28100    276.80509    195.46171    124477.07   -39209.047     3439.031   -42648.078    356.51134    1.0019034 
   28200    274.96841   -58.139226    124582.15    -39156.09    3416.2121   -42572.302    357.23608    1.0010584 
   28300    270.93178    37.810973    124784.07   -39179.949    3366.0609    -42546.01    358.96539   0.99943853 
   28400    269.56573   -133.59848    124824.11   -39181.555     3349.089   -42530.644    360.94148   0.99911788 
   28500    271.31591    21.346262    124750.95   -39233.204    3370.8332   -42604.037    362.35723   0.99970385 
   28600    272.06464   -33.787369    124622.95   -39252.314    3380.1355   -42632.449    363.43051    1.0007307 
   28700    275.52622    16.765878    124608.64   -39142.638    3423.1422    -42565.78    364.55586    1.0008456 
   28800    275.83525    88.576363    124658.12   -39146.168    3426.9816   -42573.149    366.27929    1.0004483 
   28900     270.9667    267.81653    124900.04   -39153.049    3366.4946   -42519.544    368.28627   0.99851052 
   29000    274.50806   -225.49306    124865.43   -39094.127    3410.4926    -42504.62    369.28087   0.99878731 
   29100    271.54711   -137.55829    124567.87    -39159.83    3373.7058   -42533.536    370.37041    1.0011731 
   29200    283.43966    89.109431    124430.25   -39051.111    3521.4589    -42572.57    371.55137    1.0022804 
   29300     276.3215    106.26707     124518.5    -39095.73    3433.0229   -42528.753    372.87199    1.0015701 
   29400    268.35907   -86.913925    124418.94   -39170.609    3334.0975   -42504.706    374.03919    1.0023715 
   29500    270.01055   -55.234775     124349.4    -39232.16    3354.6155   -42586.776    374.84665    1.0029321 
   29600    270.97828    33.479575    124133.18   -39239.477    3366.6386   -42606.116    375.58899     1.004679 
   29700    274.18983    70.376167    124295.41    -39151.06    3406.5389   -42557.599    377.64681    1.0033677 
   29800    272.43165   -37.251257     124329.2   -39205.778    3384.6953   -42590.474    378.82198     1.003095 
   29900    268.00682    37.999356     124187.7   -39192.238    3329.7211   -42521.959    379.42071    1.0042379 
   30000    271.90221    54.153774    124098.64   -39161.871    3378.1175   -42539.989    380.51215    1.0049587 
   30100    273.23773   -21.253382    124316.67   -39173.364      3394.71   -42568.074    382.29705    1.0031961 
   30200    274.86363    237.27479    124397.31   -39180.998    3414.9102   -42595.908    384.02595    1.0025458 
   30300    268.89509    -41.01279    124268.56   -39184.813    3340.7569    -42525.57    385.01895    1.0035846 
   30400    274.52764   -129.51395     124470.8   -39130.603    3410.7359   -42541.338    387.04475    1.0019539 
   30500    276.16861   -100.86798    124435.23   -39106.126    3431.1233   -42537.249    389.11738    1.0022403 
   30600    273.03495   -121.02051    124363.25   -39107.708    3392.1907   -42499.899    390.95373    1.0028204 
   30700    275.79831   -109.12474    124199.95   -39138.407    3426.5226   -42564.929    392.14889    1.0041389 
   30800    269.75379    203.49354    124256.66   -39133.939    3351.4255   -42485.364    393.91441    1.0036806 
   30900    275.87684    70.985544     124295.3   -39073.038    3427.4984   -42500.536    396.29679    1.0033686 
   31000    276.76166   -43.534455    124016.54   -39169.085    3438.4914   -42607.576     397.0232    1.0056239 
   31100    265.31199    82.703633     123948.2     -39239.2    3296.2405    -42535.44    397.91141    1.0061784 
   31200    267.76859      66.6201    123775.04   -39229.643    3326.7613   -42556.404     398.4236    1.0075861 
   31300    269.06821   -288.01826    123872.92   -39266.848    3342.9079   -42609.756    399.97694    1.0067899 
   31400     269.9545    144.79515    124234.81   -39155.396    3353.9192   -42509.315    402.24712    1.0038572 
   31500    269.73902    46.098825    124099.28   -39141.471     3351.242   -42492.713    403.44911    1.0049534 
   31600    275.87704    146.63626    124247.03   -39097.404    3427.5009   -42524.905    405.02456    1.0037585 
   31700    275.65358   -63.982319    124157.93   -39089.738    3424.7246   -42514.463    406.58077    1.0044788 
   31800    272.87912     18.80513    124159.46   -39104.965    3390.2546    -42495.22    408.18557    1.0044664 
   31900    279.87795   -140.47905    124236.26   -39035.177    3477.2081   -42512.385    410.25751    1.0038454 
   32000    277.84274    116.80786    124396.04   -39039.974    3451.9227   -42491.897    412.24898     1.002556 
   32100    274.62631    228.85099    124576.69   -39060.437    3411.9617   -42472.399    415.02083    1.0011023 
   32200    274.30304    84.834834    124623.68   -39081.559    3407.9454   -42489.505    416.32984    1.0007248 
   32300    276.84129    63.761745    124449.26   -39105.724    3439.4807   -42545.204    418.06477    1.0021273 
   32400    274.72701   -192.62991    124319.36   -39072.321    3413.2128   -42485.534    418.76002    1.0031745 
   32500    269.19699     85.08851    124640.01   -39099.282    3344.5077    -42443.79    420.46054    1.0005936 
   32600     273.2867   -116.99895    124522.43   -39120.799    3395.3184   -42516.118    421.38463    1.0015384 
   32700    268.84309   -50.023418    124580.29   -39105.606    3340.1109   -42445.717    422.68767    1.0010733 
   32800     272.1881   -138.68861    124633.91   -39188.996    3381.6693   -42570.666    424.86847    1.0006427 
   32900    274.41073   -82.803161    124454.09   -39207.875    3409.2834   -42617.158    424.94636    1.0020884 
   33000    267.68292   -11.540012     124280.5   -39255.661    3325.6969   -42581.357    425.85766    1.0034881 
   33100      268.834    101.01498    124482.28   -39270.654     3339.998   -42610.652    427.81997    1.0018615 
   33200    273.36765   -148.99074    124623.64   -39205.168    3396.3242   -42601.492    430.73584    1.0007251 
   33300    268.51091    53.044969    124797.59   -39235.789     3335.984   -42571.773    432.96197   0.99933021 
   33400    276.29475   -139.30272     124661.3   -39197.326    3432.6905   -42630.017    433.75448    1.0004228 
   33500    268.00526   -189.38481     124771.5   -39257.443    3329.7017   -42587.145    435.28755   0.99953922 
   33600    267.44309   -24.396928    124556.36   -39235.571    3322.7173   -42558.288     435.9714    1.0012657 
   33700    272.07968   -47.668133    124506.21   -39218.925    3380.3224   -42599.247    436.86476     1.001669 
   33800    269.30204   -122.59923    124626.49   -39201.232     3345.813   -42547.045    438.45892    1.0007022 
   33900    275.61471    2.0151986    124525.37   -39162.786    3424.2417   -42587.028    439.03514    1.0015148 
   34000    275.89306   -13.489373    124309.56   -39187.553    3427.6999   -42615.253    440.10798    1.0032535 
   34100    274.83882    141.47619    124451.46   -39155.358    3414.6019    -42569.96    441.26442    1.0021096 
   34200    275.93048    109.55652    124652.94   -39180.649    3428.1648   -42608.813    443.75864    1.0004898 
   34300    270.06244   -165.23895    124562.39    -39197.23    3355.2601    -42552.49    444.95416    1.0012171 
   34400    275.63581   -2.9520999    124350.21   -39243.815    3424.5038   -42668.319    445.92839    1.0029255 
   34500    273.11471    6.3759242    124337.99   -39181.998    3393.1816    -42575.18    447.09673    1.0030241 
   34600    269.97493   -84.477376     124384.7   -39178.601     3354.173   -42532.774     449.4221    1.0026475 
   34700    270.85796   -165.22106    124563.73   -39199.585    3365.1437   -42564.729     450.6564    1.0012064 
   34800    269.76907    47.995934    124319.42     -39233.1    3351.6153   -42584.715    451.15845    1.0031739 
   34900    271.62618    1.7540293    124351.36   -39281.833    3374.6881   -42656.521    452.28116    1.0029163 
   35000    273.80008   -7.4035801    124285.71   -39232.946    3401.6967   -42634.643    453.10235    1.0034461 
   35100    268.82679   -38.339408    124509.28   -39325.231    3339.9084   -42665.139    454.84954    1.0016443 
   35200     272.7288    201.29924    124820.84   -39260.249    3388.3871   -42648.637    457.46547   0.99914408 
   35300    273.04382    109.48767    124645.65   -39253.527    3392.3009   -42645.828    458.19779    1.0005484 
   35400    270.53352    106.09199    124771.56   -39262.882    3361.1128   -42623.995    459.44194   0.99953873 
   35500    269.73074   -81.011501    124695.96   -39234.734    3351.1391   -42585.873    460.88386    1.0001447 
   35600    276.83781    4.4317974    124673.93   -39154.671    3439.4375   -42594.108     462.3042    1.0003214 
   35700    275.00949    20.999079    124765.51   -39164.606    3416.7224   -42581.329    464.53851   0.99958714 
   35800    275.55701    -107.0578    124880.53   -39138.881    3423.5248   -42562.405    465.41794   0.99866655 
   35900    271.25119   -48.622823    124617.45   -39183.663    3370.0292   -42553.692      466.515    1.0007748 
   36000    274.22008    52.234874    124511.57    -39081.73    3406.9148   -42488.645    468.12342    1.0016258 
   36100    282.05934   -40.513417    124663.82   -39038.118    3504.3098   -42542.428    470.05923    1.0004026 
   36200    276.08843    139.60623    124372.74   -39116.238    3430.1271   -42546.365    470.83084    1.0027438 
   36300    274.95058   -94.630227    124208.98   -39183.365    3415.9904   -42599.356    471.96279    1.0040659 
   36400    270.94685     62.05998     124487.9   -39246.632    3366.2481    -42612.88    474.01958    1.0018163 
   36500    274.88822    111.11172    124535.97   -39168.617    3415.2157   -42583.833    475.45715    1.0014296 
   36600    272.62595    172.62592     124974.2   -39229.301    3387.1093    -42616.41    477.81305   0.99791801 
   36700    270.55584    58.491841       124735   -39301.684    3361.3902   -42663.074    478.01672   0.99983169 
   36800    271.41973    70.719692    124874.17   -39252.429    3372.1232   -42624.552    479.63656   0.99871737 
   36900    275.80819   -125.36393    124823.09   -39252.123    3426.6454   -42678.769    480.84301    0.9991261 
   37000    272.82493    15.592808    124670.25   -39260.461    3389.5813   -42650.042    481.94636     1.000351 
   37100    269.00214    -52.76911    124671.17   -39215.197    3342.0869   -42557.284    482.96611    1.0003436 
   37200    268.97846   -16.404707    124774.68   -39166.754    3341.7928   -42508.547    483.90546   0.99951374 
   37300     272.6618   -64.279138    124661.73   -39230.156    3387.5547   -42617.711    484.71291    1.0004193 
   37400    266.61389   -22.789898    124584.93   -39251.898    3312.4153   -42564.313     485.1467     1.001036 
   37500    274.31614    60.111535    124689.62   -39208.831    3408.1082    -42616.94    486.63598    1.0001955 
   37600     266.0687    -17.37581    124459.02   -39250.553    3305.6418   -42556.195    487.32511    1.0020488 
   37700    271.02204    88.565233    124658.55   -39197.923    3367.1822   -42565.105    488.95714    1.0004448 
   37800    266.85812    -77.68726    124561.58   -39267.911    3315.4496   -42583.361    490.03814    1.0012237 
   37900     267.1953   -79.936885    124405.92   -39306.445    3319.6387   -42626.084     491.9724    1.0024764 
   38000    268.61733      60.6853    124242.76   -39249.236    3337.3061   -42586.542    492.93515     1.003793 
   38100    269.37353    34.617585    124424.31   -39254.271    3346.7011   -42600.972    494.52376    1.0023283 
   38200    273.95605   -17.115479    124534.52   -39196.907    3403.6344   -42600.541    496.10548    1.0014413 
   38300    275.67199   -66.589147    124436.94   -39165.336    3424.9533    -42590.29     496.9403    1.0022266 
   38400    279.42397   -321.87817    124237.04   -39100.625    3471.5679   -42572.193    497.09119    1.0038392 
   38500    270.32569    191.37418    124248.79    -39222.23    3358.5308    -42580.76    498.43559    1.0037442 
   38600    268.77748    80.395165    124335.87   -39242.124    3339.2958   -42581.419    500.27451    1.0030412 
   38700    275.13899   -144.50936     124305.4   -39163.055    3418.3314   -42581.386    501.17615    1.0032871 
   38800    273.79759  -0.19258094    124444.36   -39186.627    3401.6657   -42588.293    503.61815    1.0021668 
   38900    275.09755    111.67138    124453.04   -39167.108    3417.8164   -42584.924    505.88063    1.0020969 
   39000    269.11101    259.67148    124528.06   -39174.343    3343.4395   -42517.782    507.95108    1.0014932 
   39100    273.18776   -67.996681    124402.59   -39217.695    3394.0891   -42611.784    508.59543    1.0025033 
   39200    272.89129   -12.140704    124435.32   -39185.279    3390.4058   -42575.684    510.40814    1.0022396 
   39300    272.00312    66.542684    124538.72   -39193.794    3379.3712   -42573.165    511.75182    1.0014075 
   39400    269.95444    5.9513598    124505.69   -39187.723    3353.9184   -42541.641    513.45866    1.0016731 
   39500    271.94186   -85.204675    124445.56   -39155.296    3378.6102   -42533.906    515.50535    1.0021571 
   39600    276.15477    223.11197    124353.89   -39147.846    3430.9513   -42578.797    516.38417    1.0028959 
   39700    275.47637   -33.588785    124620.26   -39216.645    3422.5229   -42639.168    518.09642    1.0007522 
   39800    273.32032    129.11589     124935.9   -39138.937    3395.7361   -42534.673    519.70623    0.9982239 
   39900     270.0005    150.29824    124653.18   -39229.384    3354.4906   -42583.875    519.90182    1.0004879 
   40000    268.80698    132.20792    124622.92   -39210.437    3339.6624   -42550.099    519.56941    1.0007308 
   40100    274.69598   -47.285738    124609.33   -39195.832    3412.8274   -42608.659    520.14289      1.00084 
   40200    273.20131    308.68541     124852.3   -39115.178    3394.2576   -42509.436    520.95978   0.99889231 
   40300    270.84915   -134.81629    124979.69   -39172.802    3365.0342   -42537.836     522.2103   0.99787418 
   40400    276.29074   -7.0991274    124698.11   -39128.142    3432.6407   -42560.783    522.49621    1.0001274 
   40500    281.23848   -86.799713    124744.96   -39007.714    3494.1114   -42501.826    524.31188   0.99975188 
   40600    276.78056   -22.036292    124756.17   -39131.349    3438.7261   -42570.076    525.28199   0.99966198 
   40700    272.23571   -157.64619    124507.97   -39140.788    3382.2609   -42523.049    526.22267    1.0016548 
   40800    271.42932   -1.6767555    124560.12   -39164.331    3372.2423   -42536.573    528.35537    1.0012354 
   40900    267.30574    25.452228    124319.89   -39269.053    3321.0109   -42590.064    528.39999    1.0031702 
   41000    270.53621    15.292286    124115.16   -39164.721    3361.1463   -42525.867    529.77386    1.0048249 
   41100    273.55927   -94.972284     124226.2   -39123.894    3398.7048   -42522.599       530.72    1.0039267 
   41200    272.71603   -155.28949    124544.81   -39114.646    3388.2284   -42502.874    532.86355    1.0013585 
   41300    271.03795   -225.70158    124445.05   -39170.416    3367.3799   -42537.796     534.3108    1.0021612 
   41400    266.77267    107.97827    124526.31   -39313.952     3314.388    -42628.34     536.0851    1.0015073 
   41500    269.62541    32.804543    124536.53   -39264.755    3349.8305   -42614.585    537.49324    1.0014251 
   41600    268.81979    -20.71971    124405.43   -39253.391    3339.8214   -42593.213    538.60116    1.0024804 
   41700    273.57278    -129.5798    124381.69   -39203.588    3398.8727    -42602.46     539.4328    1.0026717 
   41800    270.57869   -15.361177    124227.69   -39220.642    3361.6741   -42582.316     540.0764    1.0039147 
   41900    267.35453    6.1989993    124316.42   -39171.463     3321.617    -42493.08    541.89472    1.0031982 
   42000    271.12898   -45.750007    124448.57   -39128.228    3368.5109   -42496.739    543.23701    1.0021329 
   42100    270.00283    61.420891    124420.55   -39167.554    3354.5196   -42522.074    545.36345    1.0023585 
   42200    273.69931     124.4317    124501.57   -39105.762    3400.4446   -42506.206    547.23591    1.0017063 
   42300    278.31858    160.51977    124699.98    -39055.03    3457.8345   -42512.865    548.37826    1.0001125 
   42400    277.01764   -57.680576     124604.3   -39063.737    3441.6716   -42505.409    550.01123    1.0008804 
   42500    274.42439    24.391551    124404.99   -39100.097    3409.4531    -42509.55    550.62521    1.0024839 
   42600    279.99613   -47.427359    124218.89    -39047.26    3478.6765   -42525.936     550.9639    1.0039858 
   42700    270.15934    15.949955    124233.03   -39139.925     3356.464   -42496.389    552.24468    1.0038715 
   42800     276.6321    168.20014    124604.41   -39112.284    3436.8817   -42549.166    553.92585    1.0008795 
   42900    270.79445   -114.82071    124597.64   -39098.226    3364.3547    -42462.58    555.54622    1.0009339 
   43000    270.19316   -254.01793    124471.73   -39194.854    3356.8843   -42551.738    557.16052    1.0019465 
   43100    272.99476    166.53236    124104.78    -39214.92    3391.6913   -42606.611    557.43158    1.0049089 
   43200    277.29375   -22.790873    124404.77   -39187.631    3445.1021   -42632.733    559.97179    1.0024857 
   43300    271.27959    58.247371    124582.93   -39182.371    3370.3821   -42552.753    561.51276    1.0010521 
   43400    272.95354   -82.035756    124359.09   -39219.985    3391.1792   -42611.164    563.06979    1.0028539 
   43500    273.64293    15.810807    124592.41   -39133.049    3399.7442   -42532.793    564.74917     1.000976 
   43600    272.39252   -103.91381    124517.53   -39099.378    3384.2091   -42483.588    566.43398    1.0015778 
   43700    278.78702     10.63819    124539.71   -38994.886    3463.6544   -42458.541    568.50061    1.0013995 
   43800    276.71679    127.08582    124480.38   -39033.855    3437.9339   -42471.789    570.90058    1.0018768 
   43900    271.44868     72.39509    124535.73   -39067.964    3372.4828   -42440.447    572.31513    1.0014315 
   44000    278.23549   -5.7405773    124514.02   -39106.716    3456.8022   -42563.518    572.96786    1.0016061 
   44100    273.40624    243.49769    124428.31   -39117.812    3396.8036   -42514.615    574.46102    1.0022961 
   44200    268.25085    93.006138     124482.7   -39149.681    3332.7529   -42482.434    575.68079    1.0018581 
   44300    275.75589   -287.56079    124328.88   -39224.725    3425.9956   -42650.721    577.08432    1.0030977 
   44400    269.77909   -83.154274    124038.54   -39258.199    3351.7398   -42609.938    577.50023    1.0054456 
   44500    268.64334   -12.230898    123867.46   -39187.559    3337.6292   -42525.188    578.94709    1.0068343 
   44600    270.65397    64.122084    123782.37   -39224.507    3362.6093   -42587.116    580.10538    1.0075264 
   44700    268.41857   -64.701616    124131.48   -39289.895    3334.8367   -42624.732    582.87715    1.0046928 
   44800    269.44029   -185.58604    124233.87     -39268.4    3347.5305   -42615.931    584.37795    1.0038648 
   44900    274.58865   -16.194283    124249.92   -39220.231    3411.4939   -42631.725    587.35183     1.003735 
   45000    270.57884    43.780623    124174.03   -39153.063     3361.676   -42514.739    588.94977    1.0043485 
   45100    277.15849    48.291332     124391.8   -39129.518    3443.4216   -42572.939    590.58593    1.0025902 
   45200    280.47489     206.6756    124644.63   -39036.008    3484.6246   -42520.633    592.27148    1.0005566 
   45300    273.56826   -122.43831    124534.47   -39122.047    3398.8165   -42520.863    592.87947    1.0014416 
   45400    272.54462     156.9902    124554.71   -39140.248    3386.0989   -42526.347    594.55314    1.0012789 
   45500    278.33897   -44.942438    124522.47   -39103.771    3458.0879   -42561.859    596.12636    1.0015382 
   45600    271.61206   -151.57406    124574.12   -39167.409    3374.5127   -42541.922     596.7585    1.0011229 
   45700    271.15461    115.96878    124550.53   -39187.126    3368.8293   -42555.955    598.24258    1.0013125 
   45800    272.54267    80.987856    124689.54   -39130.914    3386.0745   -42516.988    599.34208    1.0001962 
   45900    275.76232   -82.821902    124828.88   -39088.698    3426.0755   -42514.773     600.6973    0.9990797 
   46000     279.9406   -207.56272    124767.13   -39011.031    3477.9866   -42489.018    601.38275   0.99957419 
   46100    279.17516    160.28011    124656.27   -39028.138    3468.4768   -42496.615    603.49449    1.0004631 
   46200    282.91296   -39.494687    124854.77   -38943.741    3514.9152   -42458.656    605.78594   0.99887254 
   46300    282.87393    15.033269    124730.03   -38979.177    3514.4303   -42493.607    606.87385   0.99987151 
   46400    282.12622   -46.587232    124780.21   -38991.876    3505.1408   -42497.017    607.84058   0.99946941 
   46500    273.26239     -11.8767    124708.33   -38996.785    3395.0164   -42391.801    608.47262    1.0000455 
   46600    279.46673   -103.98406    124600.99   -39062.855    3472.0992   -42534.954     608.7761     1.000907 
   46700     278.0688   -28.756402    124508.08    -39083.04    3454.7313   -42537.771    610.51561    1.0016539 
   46800    273.98769   -151.42792    124503.52   -39192.214    3404.0276   -42596.242    611.75786    1.0016906 
   46900    276.07006   -20.887641    124493.97   -39184.556    3429.8989   -42614.455     612.9057    1.0017674 
   47000    278.27069    59.260888    124593.19   -39094.707    3457.2395   -42551.947    614.34765    1.0009697 
   47100    279.09913   -42.256607    124479.02   -39099.557    3467.5321   -42567.089    615.83877    1.0018878 
   47200    272.26691   -98.587376    124332.95   -39099.779    3382.6485   -42482.428    618.21388    1.0030648 
   47300    274.23062   -71.690956    124261.21   -39166.116    3407.0457   -42573.161    619.64649    1.0036439 
   47400    279.12264   -18.493198    124238.92   -39186.588    3467.8243   -42654.412    621.41158    1.0038239 
   47500    270.62496    57.150055    124342.38   -39146.611     3362.249    -42508.86    623.02132    1.0029887 
   47600    274.41261    100.17725    124479.25   -39039.479    3409.3067   -42448.786     625.7157    1.0018859 
   47700    275.42126   -14.649169    124582.98   -39034.543    3421.8382   -42456.382    627.62233    1.0010517 
   47800    274.97202   -115.67295    124655.77   -39037.227    3416.2569   -42453.484    629.31046    1.0004671 
   47900    273.61919    57.015466    124599.93   -39102.696    3399.4493   -42502.146    630.90025    1.0009155 
   48000    272.49757   -100.80248    124470.44   -39150.557    3385.5143   -42536.071    631.87318    1.0019568 
   48100    268.89245   -18.868824    124421.66   -39152.581    3340.7242   -42493.305    632.57413    1.0023496 
   48200    269.62686    136.79948    124586.97   -39169.746    3349.8485   -42519.594    634.60385    1.0010196 
   48300    271.68535    39.478223    124670.66   -39113.135    3375.4232   -42488.558    636.19094    1.0003477 
   48400     276.5534     -66.6196    124669.22   -39108.772     3435.904   -42544.676    637.09372    1.0003592 
   48500     280.9983    107.62725    124521.62   -39076.333    3491.1275    -42567.46     638.4471     1.001545 
   48600    275.88957   -249.95573    124465.32   -39204.116    3427.6566   -42631.773    639.11512     1.001998 
   48700    274.07626    74.727994    124433.88   -39139.901     3405.128   -42545.029    640.98546    1.0022512 
   48800    275.27094    26.745499    124420.38   -39166.438    3419.9707   -42586.408     642.5155      1.00236 
   48900    268.69718   -66.113284    124391.23    -39180.56    3338.2981   -42518.858    643.84603    1.0025948 
   49000    274.15231     33.91623    124350.33   -39163.285    3406.0728   -42569.358    644.61305    1.0029246 
   49100    271.82572   -220.10478    124097.98   -39158.067    3377.1672   -42535.235    644.92679     1.004964 
   49200    274.61961    -33.09014    124068.73   -39167.577    3411.8785   -42579.456    647.29567    1.0052009 
   49300    272.42543    76.403625    124155.86   -39140.696     3384.618   -42525.314    649.76658    1.0044955 
   49400    278.28186    36.727469    124152.71   -39073.827    3457.3784   -42531.205    650.89401     1.004521 
   49500    279.89716    17.784929    124206.76   -39088.664    3477.4469   -42566.111    652.51654    1.0040838 
   49600     270.7959    87.019371    124065.24   -39135.045    3364.3726   -42499.418    653.16247    1.0052292 
   49700    269.32174     101.7451    124174.47   -39186.487    3346.0577   -42532.545    655.68247    1.0043449 
   49800    271.47169    68.547389    124412.62   -39157.796    3372.7687   -42530.564    657.89044    1.0024225 
   49900    275.19599   -190.83165    124356.06   -39172.133    3419.0395   -42591.173    659.21606    1.0028784 
   50000    274.27892   -64.668248    124541.16   -39106.667    3407.6457   -42514.313    662.12468    1.0013878 
   50100    275.68699    101.85904    124574.34   -39137.839    3425.1396   -42562.978    663.81245    1.0011211 
   50200    274.56796   -81.315843     124743.1   -39159.318    3411.2368   -42570.554    665.05742   0.99976677 
   50300    271.74464   -153.76719    124826.84    -39203.47    3376.1598    -42579.63    667.32824   0.99909604 
   50400     279.1752   -93.618398    124704.16   -39143.518    3468.4773   -42611.995    667.81615     1.000079 
   50500    266.70366    8.4519966     124649.8   -39241.826    3313.5306   -42555.356     670.1179     1.000515 
   50600    270.23105   -9.9469825    124356.22   -39239.833     3357.355   -42597.188    669.87239    1.0028771 
   50700    265.47636    55.773449    124499.91   -39226.451    3298.2826   -42524.734    672.19271    1.0017196 
   50800    268.96114   -192.13169    124520.98   -39244.918    3341.5776   -42586.496    673.51781    1.0015501 
   50900     276.1043   -118.37442    124605.11   -39210.138    3430.3244   -42640.462    675.29495    1.0008739 
   51000    272.13412    45.607582    124519.24   -39151.576    3380.9987   -42532.574    676.91022    1.0015641 
   51100    271.67671    122.99137    124482.74   -39213.566    3375.3159   -42588.882    678.71314    1.0018578 
   51200    267.18979    3.4442192    124564.49   -39221.191    3319.5704   -42540.761     680.7791    1.0012003 
   51300    271.74616    16.772975     124368.7   -39241.617    3376.1787   -42617.796    681.70993    1.0027765 
   51400    267.37687    1.9350846    124373.96   -39248.392    3321.8946   -42570.287    682.79752    1.0027341 
   51500    267.17928   -37.556334    124397.34   -39264.449    3319.4397   -42583.888     683.4688    1.0025456 
   51600    272.16709    -242.7628    124238.19   -39234.075    3381.4083   -42615.483    684.00021    1.0038299 
   51700    272.09456    38.241489    124423.56   -39252.352    3380.5073   -42632.859    685.19692    1.0023343 
   51800    276.72788    180.66498    124608.12   -39192.772    3438.0717   -42630.844    686.58375    1.0008497 
   51900     269.5976    3.5453198    124675.02   -39221.709     3349.485   -42571.194    687.42757    1.0003126 
   52000    266.83532   -132.95618    124280.74   -39306.016    3315.1663   -42621.183    687.62772    1.0034861 
   52100    267.55408    120.75849    124208.38   -39324.796    3324.0962   -42648.892    689.28928    1.0040708 
   52200    272.00591   -41.865116    124320.57   -39225.362    3379.4058   -42604.768    690.00608    1.0031647 
   52300    269.68114    67.441114       124282   -39256.812    3350.5228   -42607.335    691.96966     1.003476 
   52400    276.91183   -2.2242399    124241.88   -39206.133    3440.3571    -42646.49    692.87176       1.0038 
   52500    270.61482   -104.97708    124168.72   -39247.674    3362.1229   -42609.796    695.03396    1.0043915 
   52600    274.49436    136.43461    124229.22   -39158.781    3410.3223   -42569.103    696.61664    1.0039024 
   52700    269.40651   -36.000434    124324.42   -39204.763    3347.1109   -42551.874    698.25911    1.0031336 
   52800    269.82769    4.5383986    124085.17   -39185.769    3352.3436   -42538.113    698.49999    1.0050678 
   52900    268.57396    36.568947    124190.95    -39132.84    3336.7673   -42469.607    700.69175    1.0042117 
   53000    272.74268     43.88774    124175.01   -39147.731    3388.5596    -42536.29      701.221    1.0043406 
   53100    275.05873    39.091774    124323.52   -39127.991    3417.3341   -42545.326    703.59794    1.0031409 
   53200    273.56741   -90.838594    124374.03   -39096.664    3398.8059    -42495.47    705.77735    1.0027334 
   53300    271.83533    96.785933    124467.99   -39104.197    3377.2866   -42481.483    707.87056    1.0019765 
   53400      275.112    66.575846    124584.58   -39123.946     3417.996   -42541.942    709.90832    1.0010388 
   53500     266.6245    82.660145    124685.57   -39230.566    3312.5472   -42543.113    712.21684     1.000228 
   53600     272.3353    291.03242    124438.91   -39235.842    3383.4982    -42619.34    712.23547    1.0022106 
   53700    269.35404   -166.12529    124570.87   -39239.076     3346.459   -42585.535    714.38928     1.001149 
   53800    274.03752   -34.810699    124551.04   -39262.102    3404.6466   -42666.749    714.81292    1.0013084 
   53900    273.69315   -7.1522418    124462.74   -39134.999    3400.3681   -42535.367    715.29246    1.0020188 
   54000     271.1855   -238.67118    124295.57   -39181.231     3369.213   -42550.444    715.56124    1.0033665 
   54100    271.19352   -21.163206    124335.84   -39188.195    3369.3127   -42557.507    718.82468    1.0030415 
   54200    273.46333     118.2194    124296.14   -39178.275    3397.5129   -42575.787    720.57691    1.0033618 
   54300    269.27163    57.123198    124506.94   -39183.953    3345.4351   -42529.388    722.60359    1.0016631 
   54400    271.16211    77.229919    124536.09   -39198.088    3368.9224    -42567.01    724.16656    1.0014286 
   54500     275.5553    28.214433    124548.94   -39199.296    3423.5035     -42622.8    726.23911    1.0013253 
   54600    273.89724    149.72275    124457.03   -39174.743    3402.9038   -42577.647     727.1339    1.0020648 
   54700    275.63028   -7.7406639    124563.82   -39079.801    3424.4351   -42504.236    728.24916    1.0012057 
   54800    272.68355    131.42325    124340.41    -39088.98    3387.8248   -42476.804    729.34584    1.0030046 
   54900    272.09042    12.406047    124204.63   -39143.334    3380.4558    -42523.79     730.8587    1.0041011 
   55000    272.78646   -39.768192    124320.72   -39200.964    3389.1035   -42590.068    732.70386    1.0031635 
   55100    272.40671    205.19022    124488.21    -39252.36    3384.3854   -42636.745    735.86398    1.0018137 
   55200    267.87196    138.69242    124375.22   -39217.008    3328.0456   -42545.054    738.77321    1.0027239 
   55300    272.92241    146.92596    124395.86    -39214.05    3390.7924   -42604.842      739.845    1.0025575 
   55400    271.12609    18.373113    124330.72   -39188.311     3368.475   -42556.786    740.96698    1.0030828 
   55500    269.65375    84.372218    124438.42   -39170.895    3350.1826   -42521.078    742.51848    1.0022146 
   55600    276.81114   -110.97075    124639.03   -39049.946    3439.1061   -42489.052    744.07958    1.0006015 
   55700    272.05862    59.797047    124508.72    -39143.71    3380.0608    -42523.77    743.92146    1.0016487 
   55800    273.14986     56.78419    124413.76   -39120.478    3393.6183   -42514.096    744.96371    1.0024133 
   55900     274.0603    62.198196    124616.41   -39113.007    3404.9296   -42517.937    747.72737    1.0007831 
   56000    276.01805   -46.826027    124361.98   -39066.878    3429.2527   -42496.131    748.61099    1.0028307 
   56100    276.00508   -127.50432    124293.79   -39050.573    3429.0917   -42479.665    751.39863    1.0033808 
   56200     273.0797   -4.2573112    124221.26   -39079.309    3392.7467   -42472.055    752.57473    1.0039666 
   56300    275.16802    226.49554     124341.2   -39058.301     3418.692   -42476.993    754.39563    1.0029982 
   56400    278.94391   -21.538024    124479.48   -39065.342    3465.6037   -42530.945    755.67341    1.0018841 
   56500    272.97625    197.66907    124469.53   -39096.268    3391.4614   -42487.729    757.12139    1.0019642 
   56600    274.32159  0.042100006    124666.06   -39178.798     3408.176   -42586.974    760.08784    1.0003845 
   56700    272.70747   -126.65121    124549.58   -39171.128    3388.1221    -42559.25    761.15298    1.0013201 
   56800    267.86751    196.65204    124665.83   -39260.712    3327.9904   -42588.702     764.3978    1.0003864 
   56900    273.40317   -96.868032    124617.56     -39150.2    3396.7654   -42546.965    765.08495    1.0007739 
   57000    275.62422    282.05014    124467.96   -39115.186    3424.3598   -42539.546    766.04911    1.0019768 
   57100     276.9628    156.51076    124523.02   -39125.692    3440.9904   -42566.683    766.60165    1.0015337 
   57200    272.28821    61.005863    124460.82   -39164.322    3382.9131   -42547.235    767.65962    1.0020342 
   57300     272.3592    127.48653    124528.83   -39199.342    3383.7951   -42583.137    769.58512     1.001487 
   57400     269.0576   -48.176655    124395.46   -39273.866    3342.7761   -42616.642    769.70505    1.0025607 
   57500    265.62935    -14.10312    124236.81   -39268.205    3300.1834   -42568.388     769.5081     1.003841 
   57600    269.70356   -54.055558    124270.78   -39318.913    3350.8015   -42669.714    769.91044    1.0035666 
   57700    266.72458    141.25315    124245.17   -39287.455    3313.7906   -42601.246    770.42394    1.0037734 
   57800      267.615    11.974829    124294.86   -39378.174    3324.8532   -42703.028    772.98401    1.0033722 
   57900    263.13888    81.729505    124457.85   -39324.944    3269.2417   -42594.186    774.41492    1.0020582 
   58000    266.10567   -61.816096    124431.91   -39290.218    3306.1011   -42596.319    776.44876     1.002267 
   58100    268.64603    48.815876    124437.36   -39252.514    3337.6626   -42590.176    777.99396    1.0022232 
   58200    272.29721   -59.443057    124692.97   -39174.498    3383.0249   -42557.523    779.99472    1.0001687 
   58300    275.42079   -138.42791    124515.38    -39121.18    3421.8324   -42543.013    781.86171    1.0015951 
   58400    276.17895   -19.073638    124628.73   -39081.238    3431.2518    -42512.49    783.09644    1.0006843 
   58500    273.91464   -40.747004    124416.69   -39095.732    3403.1199   -42498.852     783.9399    1.0023896 
   58600    272.96144   -106.65665    124317.98   -39130.876    3391.2774   -42522.153    784.64964    1.0031856 
   58700    275.68884    137.07482    124554.75   -39090.896    3425.1626   -42516.058    787.47334    1.0012786 
   58800    274.19573    78.483862    124560.84   -39070.065    3406.6122   -42476.677    789.94757    1.0012296 
   58900    274.40323   -104.98587    124255.58   -39120.707    3409.1901   -42529.897    790.11226    1.0036893 
   59000    274.61537   -93.173011     124280.5   -39195.973    3411.8258   -42607.799     791.5649    1.0034881 
   59100    268.61998    -33.25982    124333.11   -39127.237    3337.3391   -42464.576    793.42971    1.0030635 
   59200    275.57112    23.185847    124332.39   -39148.297    3423.7001   -42571.998    794.42061    1.0030693 
   59300    275.90977   -46.882756    124163.33    -39161.77    3427.9074   -42589.677    795.26887    1.0044351 
   59400    265.52128    139.64328    124396.49   -39202.253    3298.8407   -42501.093    797.10848    1.0025525 
   59500     271.2783   -12.686103     124415.4    -39178.88    3370.3661   -42549.246    798.49676    1.0024001 
   59600    266.56994    5.0484155    124534.52   -39185.257    3311.8693   -42497.126    800.46062    1.0014412 
   59700    272.45774   -161.72572    124536.43   -39202.467    3385.0194   -42587.486    802.28691    1.0014259 
   59800    274.36933    32.705735    124597.29    -39212.88     3408.769   -42621.649    803.89516    1.0009368 
   59900    269.30927   -136.09652    124683.78   -39255.202    3345.9028   -42601.105    805.20388    1.0002424 
   60000    269.96383   -153.65325    124682.49   -39251.516     3354.035   -42605.551    805.37845    1.0002528 
   60100    268.55451   -4.9931708    124422.32   -39235.804    3336.5256    -42572.33    805.70663    1.0023443 
   60200    266.74955    4.4565363    124529.12   -39194.851    3314.1008   -42508.952     807.8004    1.0014847 
   60300    273.67873   -48.529027    124602.34   -39161.744     3400.189   -42561.933    810.38328    1.0008962 
   60400    274.74208    94.575947    124762.55    -39124.61    3413.4001    -42538.01    812.30878   0.99961093 
   60500    274.76727    19.969507    124806.12   -39047.653     3413.713   -42461.366    813.71983   0.99926193 
   60600    273.22184    158.56445    124809.33   -39108.575    3394.5126   -42503.088     815.1364    0.9992362 
   60700    273.02417   -12.200075    124974.06   -39116.528    3392.0567   -42508.585    816.84578   0.99791909 
   60800    273.29579   -135.41314    124832.93   -39186.886    3395.4313   -42582.317    816.89833   0.99904732 
   60900    274.75213   -127.72781    124706.58   -39120.737    3413.5249   -42534.262    817.80619    1.0000595 
   61000    274.39576   -188.52798    124524.01   -39147.709    3409.0974   -42556.806    818.74095    1.0015258 
   61100    269.23082    28.019873    124686.97   -39180.516    3344.9281   -42525.444     819.9332    1.0002168 
   61200    276.77987   -3.8494448    124569.28   -39201.871    3438.7176   -42640.588    820.74478    1.0011618 
   61300    269.17378   -146.09149    124238.52   -39195.492    3344.2194   -42539.712    820.55229    1.0038272 
   61400    271.35031    231.69873       124204   -39201.031    3371.2606   -42572.292    821.63486    1.0041062 
   61500    262.15895   -61.176524    124175.12   -39260.043     3257.067    -42517.11    823.96678    1.0043397 
   61600    270.43954    -19.35315    124178.33    -39215.64    3359.9453   -42575.585    825.72702    1.0043137 
   61700    274.86589    161.57656    124447.23    -39137.52    3414.9383   -42552.458    828.67827    1.0021437 
   61800    273.41472   -31.352404    124804.66   -39243.814    3396.9089   -42640.723    832.14803    0.9992736 
   61900    265.56381    6.5881645    124608.28   -39318.531    3299.3691     -42617.9    832.65502    1.0008484 
   62000    269.85312   -78.711044     124529.3   -39269.193    3352.6595   -42621.853    832.77975    1.0014832 
   62100    273.86752     22.65697    124487.72    -39263.98    3402.5345   -42666.515    834.31138    1.0018177 
   62200    267.95467   -64.323022    124409.13    -39240.13    3329.0731   -42569.203    835.26579    1.0024506 
   62300    279.81672    181.26236    124512.37   -39165.195    3476.4474   -42641.642    836.95874    1.0016194 
   62400    275.44541   -45.698331    124709.15    -39215.34    3422.1383   -42637.479    839.80491    1.0000389 
   62500     272.4731    229.18318       124924   -39132.202    3385.2102   -42517.412    842.86727   0.99831901 
   62600    275.38754   -100.26725    124769.61   -39174.668    3421.4193   -42596.087    842.89553   0.99955436 
   62700      268.651    -151.4733    124547.91     -39229.8    3337.7244   -42567.525    842.40794    1.0013335 
   62800    268.09353   -24.242887    124531.28   -39264.732    3330.7983    -42595.53    843.84512    1.0014673 
   62900    273.10574   -13.691547    124604.48   -39209.208    3393.0702   -42602.279    844.79054     1.000879 
   63000     274.8677   -105.50196    124643.59   -39161.004    3414.9608   -42575.964    846.85623    1.0005649 
   63100    277.53352    -100.9135    124750.45   -39091.168     3448.081   -42539.249    848.86121   0.99970781 
   63200    276.40259   -86.604658    124711.08   -39081.987    3434.0303   -42516.017    849.88405    1.0000235 
   63300    277.53146   -84.750021    124743.25   -39132.993    3448.0554   -42581.048      850.763   0.99976556 
   63400    274.01392    23.526674    124732.57   -39113.032    3404.3534   -42517.385    852.51836   0.99985116 
   63500    278.52058    -284.0378    124751.11   -39092.668    3460.3442   -42553.012    852.95183   0.99970255 
   63600    274.67015   -216.92441    124525.36   -39188.255    3412.5064   -42600.762    852.07601    1.0015149 
   63700     276.3476    137.54475    124675.58   -39191.705    3433.3471   -42625.052    854.98708    1.0003082 
   63800    270.26076   -183.42106    124682.85    -39227.22    3357.7241   -42584.944    856.36582    1.0002499 
   63900    267.25163    62.897479    124459.04   -39372.106    3320.3386   -42692.445    856.43396    1.0020486 
   64000    266.09826    26.508913    124158.14   -39307.916    3306.0092   -42613.925     856.8144     1.004477 
   64100    271.97842   -74.556403    124181.46   -39242.166    3379.0643    -42621.23    856.79969    1.0042884 
   64200    277.98366    153.07803     124282.2   -39149.295    3453.6735   -42602.969    859.12183    1.0034744 
   64300    276.52414   -2.7221175    124363.68   -39211.746    3435.5404   -42647.286    861.24776    1.0028169 
   64400    280.05477    54.762518    124516.03   -39086.242     3479.405   -42565.647    863.39626    1.0015899 
   64500    270.00945   -85.315043    124651.68   -39134.215    3354.6018   -42488.817    866.60791       1.0005 
   64600    274.74957     -120.718    124376.63   -39124.505    3413.4931   -42537.998    865.73365    1.0027125 
   64700    270.01408    79.229312    124543.18   -39172.998    3354.6593   -42527.657    867.01805    1.0013716 
   64800    270.26879   -29.735708    124521.79   -39157.413    3357.8239   -42515.237    866.38917    1.0015436 
   64900    271.05241   -191.96585    124308.97   -39180.894    3367.5595   -42548.454    866.41156    1.0032583 
   65000    275.34211   -46.995723    124095.86   -39121.721    3420.8549   -42542.576    865.91853    1.0049812 
   65100    277.61374    113.44843    124117.86   -39098.387    3449.0777   -42547.464    867.87992     1.004803 
   65200    275.58062   -307.63177    124207.56   -39146.324    3423.8181   -42570.142     870.3767    1.0040774 
   65300    272.02363    14.390114    124176.23   -39135.925     3379.626   -42515.551    870.52382    1.0043307 
   65400    275.29781   -28.190049    124050.78   -39093.544    3420.3045   -42513.849    871.15566    1.0053464 
   65500    279.47236    7.2026459    124191.46   -39050.015    3472.1692   -42522.184    872.55496    1.0042076 
   65600     272.5335   -38.893138    124261.88   -39126.197    3385.9607   -42512.158    873.91116    1.0036385 
   65700     272.9853   -50.531425    124275.44   -39163.994    3391.5739   -42555.567    875.13594     1.003529 
   65800    265.17086    195.96582    124506.62   -39257.223    3294.4871    -42551.71    878.10554    1.0016656 
   65900    273.33234    63.901688    124544.21   -39266.076    3395.8855   -42661.961    879.15686    1.0013633 
   66000    273.09992    -4.606279    124585.22   -39179.053    3392.9979   -42572.051    881.51453    1.0010337 
   66100    276.26706   -191.63497    124601.74   -39102.257    3432.3465   -42534.604    882.47127    1.0009009 
   66200    275.52577    19.503403    124414.49   -39035.409    3423.1366   -42458.546    883.44739    1.0024074 
   66300     277.1302   -16.455216    124454.06    -38953.43    3443.0701     -42396.5    884.51441    1.0020887 
   66400    275.42921    127.35748    124642.39   -39017.398    3421.9369   -42439.335    886.57208    1.0005745 
   66500    274.39974   -131.97094    124464.49   -39073.624    3409.1469   -42482.771    887.62008    1.0020047 
   66600    275.53748    -42.46854     124383.3   -39073.856    3423.2821   -42497.138    888.57592    1.0026588 
   66700    275.60469   -62.268495    124533.95   -39162.618    3424.1171   -42586.735    891.90439    1.0014458 
   66800    269.00321   -130.50464    124459.22   -39155.077    3342.1003   -42497.177    892.84001    1.0020471 
   66900     276.3817   -23.951959    124514.14   -39105.218    3433.7708   -42538.989    894.55435    1.0016052 
   67000    271.09033   -134.61684    124434.27   -39187.349    3368.0306    -42555.38    894.94777     1.002248 
[...]
   84700    272.30242    92.013291    124463.36   -39301.283    3383.0897   -42684.373    1141.9251    1.0020138 
   84800    266.22695    147.22968    124495.34   -39325.465    3307.6079   -42633.073    1143.2173    1.0017564 
   84900    267.29714   -51.556458    124604.33   -39257.648     3320.904   -42578.552    1145.2126    1.0008802 
   85000    267.15448   -169.45179    124227.31   -39214.656    3319.1316   -42533.788    1144.1477    1.0039177 
   85100    271.11251    27.358408    124341.51   -39172.218    3368.3063   -42540.524    1146.2708    1.0029957 
   85200    275.93622   -104.40913    124520.45   -39164.455    3428.2361   -42592.691    1147.7616    1.0015544 
   85300    272.27394   -46.221273     124368.1   -39188.332    3382.7358   -42571.068    1147.6802    1.0027813 
   85400    272.02971   -57.900417    124239.92    -39183.66    3379.7016   -42563.361    1148.3154    1.0038159 
   85500    276.66228    83.347906    124417.41   -39179.338    3437.2567   -42616.595    1148.7672    1.0023839 
   85600     277.2204    112.86806    124474.57   -39138.722    3444.1908   -42582.913    1148.9732    1.0019236 
   85700    269.76277    320.90217    124578.21   -39157.283    3351.5371    -42508.82    1151.4395      1.00109 
   85800    274.16619    152.60672    124515.12   -39207.148    3406.2452   -42613.394    1151.5296    1.0015973 
   85900    275.48422   -94.176283    124322.03   -39145.009    3422.6204   -42567.629    1150.8748    1.0031529 
   86000     274.0389    127.28546    124623.31   -39106.765    3404.6638   -42511.429    1154.0156    1.0007277 
   86100    279.40756    91.991714    124406.33   -39114.015     3471.364   -42585.379    1155.3955    1.0024731 
   86200    270.97074    59.276974    124519.23   -39131.988    3366.5449   -42498.533    1158.8205    1.0015642 
   86300    275.73094   -170.13848    124613.64   -39072.488    3425.6857   -42498.174    1160.4871    1.0008054 
   86400    272.04795    34.268393    124562.62   -39141.893    3379.9282   -42521.821    1161.1531    1.0012153 
   86500    277.33622   -14.851527    124276.47   -39117.553    3445.6297   -42563.183    1160.2318    1.0035206 
   86600    278.42118   -192.35696    124333.57   -39077.305    3459.1093   -42536.414    1161.4914    1.0030598 
   86700    279.46571    62.717231    124107.17   -39056.891    3472.0865   -42528.978    1161.7466    1.0048896 
   86800    273.73983    129.39428     124128.3   -39070.674    3400.9481   -42471.622    1163.3622    1.0047186 
   86900    275.24237    108.30332    124209.16   -39134.226    3419.6157   -42553.842     1166.393    1.0040645 
   87000    279.43681   -220.38036    124378.57   -39084.736    3471.7275   -42556.463    1168.7286    1.0026969 
   87100    270.34692      111.113     124283.3   -39127.112    3358.7945   -42485.907    1169.0306    1.0034655 
   87200    274.31304    139.27832    124320.13   -39178.688    3408.0696   -42586.758    1171.1206    1.0031682 
   87300    276.29525    7.5147308    124182.49   -39092.725    3432.6967   -42525.421    1171.7649    1.0042801 
   87400    270.98276    15.538752    124820.06   -39149.627    3366.6943   -42516.321    1178.9203   0.99915034 
   87500    267.87121     107.4063    124889.36   -39140.478    3328.0363   -42468.514    1180.9541   0.99859593 
   87600     270.6146    98.885507    124913.75   -39155.554    3362.1202   -42517.674    1182.0203    0.9984009 
   87700    273.53664    27.965441    124803.91   -39163.666    3398.4237    -42562.09    1182.9727   0.99927964 
   87800    275.32452   -2.4013433     124666.8   -39136.178    3420.6364   -42556.814    1182.3564    1.0003787 
   87900    275.28405   -36.157259    124726.79   -39141.511    3420.1335   -42561.644    1184.2516   0.99989751 
   88000    267.76346    108.06689    124602.64   -39203.166    3326.6976   -42529.864    1185.9355    1.0008938 
   88100     272.1977    45.131753    124857.32    -39188.46    3381.7887   -42570.249    1189.1385   0.99885214 
   88200    272.30905    144.65887    124950.97   -39178.161    3383.1721   -42561.333    1191.9711   0.99810354 
   88300    274.45067    126.20368    124984.92   -39138.707    3409.7796   -42548.487     1192.928   0.99783239 
   88400    269.26266    122.11293    124705.35   -39233.595    3345.3236   -42578.918    1191.6529    1.0000694 
   88500    271.49128   -199.78854    124607.95   -39332.296    3373.0121   -42705.308     1193.462    1.0008511 
   88600    269.73645    84.047694    124426.74   -39168.642      3351.21   -42519.852    1194.5669    1.0023087 
   88700    276.44846   -15.987621    124720.55   -39073.077    3434.6001   -42507.678    1197.8776   0.99994751 
   88800     272.0603   -126.80991    124594.64   -39055.312    3380.0816   -42435.393    1198.7676     1.000958 
   88900     275.5099   -16.162147    124546.14   -38992.267    3422.9395   -42415.206    1198.9682    1.0013478 
   89000    278.03826    84.928649    124563.39   -38993.139    3454.3519   -42447.491    1200.9056    1.0012092 
   89100    280.24954    132.50839    124701.75    -38989.15    3481.8249   -42470.975    1202.9932    1.0000983 
   89200     272.9069    187.36562    124763.54   -39139.505    3390.5998   -42530.105    1204.4793   0.99960296 
   89300    273.33062    -70.63757    124958.71   -39167.639    3395.8641   -42563.503    1208.3744    0.9980417 
   89400     267.2541    -194.7134     124772.9    -39221.13    3320.3693     -42541.5    1208.1693   0.99952794 
   89500    271.42928   -68.536926    124519.22   -39225.512    3372.2418   -42597.754    1207.9273    1.0015643 
   89600    268.55035    59.077754    124352.29   -39304.906    3336.4739    -42641.38     1209.732    1.0029088 
   89700    265.70039    43.006559    124270.95   -39346.399    3301.0659   -42647.465    1210.1916    1.0035652 
   89800    268.49717    90.253649    124256.37   -39276.443    3335.8132   -42612.256    1211.2534    1.0036829 
   89900    270.94253   -57.867006    124512.21    -39225.55    3366.1944   -42591.744    1213.4796    1.0016206 
   90000    264.05789    142.50902    124354.38   -39319.872    3280.6595   -42600.531    1215.5165     1.002892 
   90100    272.75835   -52.114908    124730.14   -39165.113    3388.7542   -42553.867    1220.1852   0.99987065 
   90200    271.48073    192.08671    124642.14    -39217.59    3372.8811   -42590.471    1220.5457    1.0005766 
   90300    268.54959    79.834498    124853.39    -39260.09    3336.4645   -42596.555    1223.9442   0.99888358 
   90400    270.76892   -99.629614    124712.58   -39248.627    3364.0375   -42612.665    1223.8473    1.0000114 
   90500    269.98384    220.65215    124492.68   -39223.243    3354.2836   -42577.527    1223.8231    1.0017778 
   90600    273.87397    114.72757    124411.85   -39194.363    3402.6146   -42596.978    1225.7242    1.0024286 
   90700    275.20297   -266.53477    124507.96   -39158.021    3419.1262   -42577.148    1227.9099    1.0016549 
   90800    271.26313   -77.795298    124485.05   -39139.496    3370.1776   -42509.673    1229.5912    1.0018392 
   90900    270.45259    8.5148675    124492.31   -39143.797    3360.1073   -42503.905    1229.1649    1.0017808 
   91000    269.13846   -112.58731    124539.65   -39279.672    3343.7806   -42623.453    1230.0648       1.0014 
   91100    268.06828   -68.376626    124502.08   -39263.455    3330.4847    -42593.94    1230.3113    1.0017022 
   91200    274.40683   -42.702245    124522.08   -39235.575     3409.235    -42644.81    1231.2724    1.0015413 
   91300    273.05585   -127.61837    124482.47   -39229.657    3392.4504   -42622.107    1231.7874    1.0018599 
   91400    278.85958    155.85929    124577.01   -39071.136     3464.556   -42535.692    1233.9765    1.0010997 
   91500     273.6796    51.710572     124480.4   -39116.171    3400.1998   -42516.371    1235.0723    1.0018766 
   91600    279.48766   -168.56327    124683.85   -39108.934    3472.3592   -42581.293    1238.0805    1.0002418 
   91700    271.51553    78.206497    124651.16   -39187.666    3373.3133    -42560.98    1237.7419    1.0005041 
   91800    268.79417   -56.541935    124724.62    -39262.32    3339.5031   -42601.823    1238.9724    0.9999149 
   91900     272.1495   -12.252654    124684.85   -39230.255    3381.1899   -42611.445    1239.1184    1.0002338 
   92000    268.74222   -14.527708    124840.69   -39171.536    3338.8577   -42510.394    1240.8537    0.9989852 
   92100    271.55278   -176.58951    124534.05   -39207.092    3373.7762   -42580.868    1239.2244     1.001445 
   92200    271.31515   -219.06565    124530.49   -39281.095    3370.8238   -42651.919    1240.4245    1.0014736 
   92300    273.11567    12.458016    124603.19   -39196.637    3393.1936   -42589.831    1243.2735    1.0008893 
   92400    271.37442    47.567491     124582.3    -39069.53    3371.5602    -42441.09    1243.5356    1.0010571 
   92500    276.65664    7.0482068    124577.29   -39089.872    3437.1865   -42527.059    1245.4575    1.0010975 
   92600    273.19955   -7.3084901    124412.69   -39117.425    3394.2357   -42511.661    1246.7719    1.0024218 
   92700    270.58614    64.652837    124313.31   -39139.498    3361.7666   -42501.265    1248.0398    1.0032233 
   92800     273.0296    32.749271    124170.52   -39155.743    3392.1242   -42547.867    1249.3126    1.0043769 
   92900    269.50822    8.9408241    124019.89   -39202.396    3348.3745   -42550.771    1249.7773    1.0055968 
   93000    274.62684    298.58274    123978.65   -39090.502    3411.9684    -42502.47    1250.5676    1.0059313 
   93100    270.77278    167.19453    124194.13   -39141.091    3364.0854   -42505.177    1252.6069     1.004186 
   93200    273.56277    61.035025    124342.49   -39028.271    3398.7484   -42427.019    1254.4188    1.0029878 
   93300    271.09798    68.051468    124417.96   -39034.881    3368.1257   -42403.007    1257.0228    1.0023794 
   93400    275.82286    80.941985    124527.97   -39042.404    3426.8277   -42469.232    1258.6521    1.0014939 
   93500    271.49512   -48.050703    124565.21   -39126.028    3373.0597   -42499.087    1261.1246    1.0011945 
   93600    271.37963   -3.6654314    124452.61   -39153.411     3371.625   -42525.036     1261.162    1.0021004 
   93700    271.06007   -162.92531     124184.8   -39296.938    3367.6547   -42664.593    1260.5979    1.0042614 
   93800      271.596   -33.572388    123987.94   -39265.212    3374.3132   -42639.525    1259.3723    1.0058559 
   93900    271.83519    151.82794     124056.1   -39200.133    3377.2848   -42577.418    1262.5692    1.0053032 
   94000    274.89001    134.12649    124221.85   -39165.049     3415.238   -42580.287    1264.0429    1.0039619 
   94100    268.47976    90.799539    124192.09   -39228.012    3335.5969   -42563.609    1263.6747    1.0042025 
   94200    271.29377    45.101072     124207.3   -39235.694    3370.5582   -42606.253    1265.7907    1.0040795 
   94300    270.63503    61.137386    124158.81   -39238.017     3362.374   -42600.391    1268.1655    1.0044717 
   94400    269.08324    61.614637    124364.29   -39187.499    3343.0945   -42530.594    1272.6822     1.002812 
   94500    280.21371    70.309969    124373.68   -39120.957    3481.3796   -42602.336     1274.474    1.0027363 
   94600    278.62851    63.222036    124471.62   -39036.237    3461.6852   -42497.922    1276.7344    1.0019473 
   94700    273.20015    154.56219    124427.11   -39153.809    3394.2431   -42548.052     1279.041    1.0023057 
   94800    272.56381    121.31928    124703.13   -39183.023    3386.3373    -42569.36    1282.0231    1.0000872 
   94900    271.51446    79.372593    124630.04   -39204.398    3373.3001   -42577.698    1283.8759    1.0006737 
   95000    272.43608   -134.91173    124524.04   -39125.335    3384.7503   -42510.085    1283.7267    1.0015255 
   95100    281.26914    71.306713    124443.04   -39084.178    3494.4923   -42578.671    1284.2859    1.0021774 
   95200    274.34318   -266.35829    124560.71   -39114.898    3408.4441   -42523.342    1285.5205    1.0012307 
   95300    269.18716    40.804648    124379.01   -39107.782    3344.3857   -42452.167    1286.2761    1.0026933 
   95400      274.954    235.56838     124445.9   -39016.593     3416.033   -42432.626    1289.8739    1.0021544 
   95500    273.98071   -34.373293    124597.99   -39050.218    3403.9408   -42454.159    1291.6812    1.0009311 
   95600    274.26903    73.416223    124278.85   -39088.751    3407.5229   -42496.274    1291.7453    1.0035014 
   95700    278.09285   -159.78712    124507.69   -39084.341      3455.03   -42539.371    1295.3089    1.0016571 
   95800    268.04453    11.572085    124406.82   -39173.679    3330.1897   -42503.869    1295.6135    1.0024692 
   95900    268.11711    152.28637    124374.03   -39221.355    3331.0913   -42552.446    1296.5263    1.0027335 
   96000    272.33368    185.78154    124821.67   -39176.888    3383.4781   -42560.367    1300.3324   0.99913744 
   96100    274.20644    73.189662    124823.35   -39275.614    3406.7453   -42682.359     1302.691   0.99912398 
   96200    270.20895    46.843929    124549.25    -39236.67    3357.0804   -42593.751    1301.4273    1.0013228 
   96300    273.36512    5.6455622    124419.75   -39278.786    3396.2927   -42675.079    1301.7209     1.002365 
   96400    271.38209    101.43975    124744.33   -39247.601    3371.6556   -42619.257    1304.3761    0.9997569 
   96500    275.06838   -151.77086    124523.14   -39235.452     3417.454   -42652.906    1303.0717    1.0015327 
   96600    271.85549    71.093304    124391.93   -39246.018    3377.5371   -42623.555    1304.1981    1.0025892 
   96700    266.78599     21.11825    124402.42   -39287.599    3314.5535   -42602.152    1304.9955    1.0025046 
   96800    268.09894   -198.02757    124144.14   -39359.449    3330.8657   -42690.315    1303.0517    1.0045903 
   96900    268.55967    51.458553    124167.21   -39320.797    3336.5897   -42657.387     1303.437    1.0044037 
   97000    269.49294   -115.54328    124339.83   -39237.554    3348.1846   -42585.739    1307.3906    1.0030092 
   97100    266.88022   -23.563773    124217.18   -39228.262    3315.7242   -42543.986    1308.8213    1.0039996 
   97200    262.43562    131.31445    124092.63   -39266.661    3260.5044   -42527.166    1309.4302    1.0050073 
   97300    270.94784   -99.061374    124226.65   -39214.515    3366.2604   -42580.775    1312.3287    1.0039231 
   97400    263.59735   -33.618361    124063.89    -39253.68    3274.9378   -42528.618    1313.0522    1.0052401 
   97500    270.55004     197.6428    123990.18   -39211.863    3361.3181   -42573.181    1315.2558    1.0058377 
   97600    274.95746    -155.3499    124155.07   -39097.665     3416.076   -42513.741    1317.6448    1.0045019 
   97700    274.51088    79.651259    124163.62   -39185.977    3410.5277   -42596.505     1319.561    1.0044327 
   97800    270.51575    232.70947    124445.09   -39094.431    3360.8921   -42455.323    1322.4323    1.0021609 
   97900    276.12186    -85.33575     124416.6   -39065.616    3430.5425   -42496.158    1324.7378    1.0023904 
   98000     278.5301    43.025805    124563.89   -39007.374    3460.4625   -42467.837    1325.7488    1.0012051 
   98100    276.51323   -3.3933852    124475.02   -39078.798    3435.4048   -42514.203    1327.1011    1.0019199 
   98200    275.92288    119.18737    124317.35   -39160.797    3428.0703   -42588.868    1327.3061    1.0031906 
   98300    272.69338    174.39756     124452.3   -39143.734     3387.947   -42531.681    1329.5897    1.0021028 
   98400    269.95336   -5.5688449    124276.67   -39211.289     3353.905   -42565.194    1328.1871     1.003519 
   98500    272.83509    -76.83414    124311.37   -39220.843    3389.7076   -42610.551    1330.6867    1.0032389 
   98600    270.30452    195.49435    124478.48    -39213.18    3358.2678   -42571.448    1334.1709    1.0018921 
   98700    264.84912    176.31223    124454.73   -39254.562    3290.4898   -42545.051     1336.594    1.0020833 
   98800    267.38869    118.73774    124364.03   -39310.661    3322.0414   -42632.703     1337.941    1.0028141 
   98900    266.63053   -137.22105    124320.15   -39270.583     3312.622   -42583.205    1340.7728    1.0031681 
   99000    270.28367   -157.69701    124235.18   -39284.331    3358.0087   -42642.339    1342.2614    1.0038542 
   99100    271.80769   -44.357837    124459.22   -39259.114    3376.9432   -42636.058    1346.6082    1.0020471 
   99200    269.17292   -73.273818    124407.39    -39193.28    3344.2087   -42537.489    1347.2403    1.0024646 
   99300    273.36273    70.858789    124285.21    -39140.66     3396.263   -42536.923      1349.17    1.0034501 
   99400    274.71531    103.74135    124724.25   -39148.979    3413.0675   -42562.046    1354.7429   0.99991787 
   99500    274.46121    170.00615    124780.13   -39054.471    3409.9105   -42464.381    1355.5677   0.99947006 
   99600    278.15779   -73.514298    125003.15   -38966.374    3455.8369   -42422.211    1358.4892   0.99768691 
   99700    278.43618   -53.681683    124912.67   -39001.005    3459.2956     -42460.3    1358.7704   0.99840952 
   99800    275.28266   -84.527796    124988.24   -39013.007    3420.1163   -42433.124    1359.7118   0.99780594 
   99900    278.29441   -167.48664    124707.98    -39035.98    3457.5342   -42493.514    1359.9803    1.0000483 
  100000    276.97685    10.391741    124565.75   -39093.273    3441.1649   -42534.438     1359.745    1.0011901 
  100100    268.38328    121.74489    124710.32   -39095.655    3334.3983   -42430.053    1360.8353    1.0000296 
  100200    272.47022   -27.982249    124629.99    -39006.96    3385.1745   -42392.135    1360.3275    1.0006741 
  100300    276.58292   -83.189724       124510   -39029.233    3436.2708   -42465.504     1359.011    1.0016385 
  100400    276.48823    145.21256    124548.03   -39003.263    3435.0943   -42438.357    1361.6508    1.0013326 
  100500    276.97379    202.21542    124407.08   -39028.082    3441.1269   -42469.209    1362.6518    1.0024671 
  100600    273.12054    116.24531    124364.28   -38989.186    3393.2541   -42382.441    1363.9717    1.0028121 
  100700     274.6852    89.770779    124671.37    -39055.12    3412.6934   -42467.813    1365.8858     1.000342 
  100710     274.0161    250.63851    124730.92   -39024.181    3404.3805   -42428.561    1366.3444   0.99986435 
Loop time of 178.997 on 6 procs for 100000 steps with 4169 atoms

Performance: 241.345 ns/day, 0.099 hours/ns, 558.670 timesteps/s
99.2% CPU use with 6 MPI tasks x no OpenMP threads

MPI task timing breakdown:
Section |  min time  |  avg time  |  max time  |%varavg| %total
---------------------------------------------------------------
Pair    | 151.67     | 153.94     | 155.77     |  11.7 | 86.00
Neigh   | 7.1806     | 7.229      | 7.2963     |   1.5 |  4.04
Comm    | 13.073     | 14.977     | 17.287     |  38.3 |  8.37
Output  | 0.16888    | 0.17024    | 0.17642    |   0.7 |  0.10
Modify  | 1.9345     | 1.9577     | 1.9749     |   0.9 |  1.09
Other   |            | 0.7197     |            |       |  0.40

Nlocal:        694.833 ave         712 max         689 min
Histogram: 3 1 1 0 0 0 0 0 0 1
Nghost:        1603.67 ave        1618 max        1582 min
Histogram: 1 0 0 0 1 1 0 1 1 1
Neighs:        0.00000 ave           0 max           0 min
Histogram: 6 0 0 0 0 0 0 0 0 0
FullNghs:      23325.3 ave       23912 max       23004 min
Histogram: 1 3 0 0 0 0 1 0 0 1

Total # of neighbors = 139952
Ave neighs/atom = 33.569681
Neighbor list builds = 7008
Dangerous builds = 0

undump              1
unfix               2
unfix               3
unfix               4


################################################
#######         Run Simulation         #########
################################################

reset_timestep      0
log                 log.run_${NAME}
log                 log.run_liquid_273K_1atm_mW
