
# Define the lattice
#
variable	    lattice_constant equal 6.36339
lattice		    diamond ${lattice_constant}
lattice		    diamond 6.36339
Lattice spacing in x,y,z = 6.3633900 6.3633900 6.3633900

# Define region
# multiples of lattice spacing
#
region 		    simbox block 0 8 0 8 0 8

# Create Atoms
#
create_box          1 simbox
Created orthogonal box = (0.0000000 0.0000000 0.0000000) to (50.907120 50.907120 50.907120)
  1 by 2 by 3 MPI processor grid
create_atoms        1 box
Created 4096 atoms
  create_atoms CPU = 0.002 seconds
mass                1 18.015

# Define potential
#
pair_style          sw
pair_coeff          * * mW_real.sw mW
Reading sw potential file mW_real.sw with DATE: 2019-02-27

# Add velocity/set timestep
#
velocity            all create ${TEMP} 120598 rot yes dist gaussian
velocity            all create 273 120598 rot yes dist gaussian
timestep            5.0

# Define output
#
compute	            1 all msd
thermo              100
thermo_style        custom step temp press vol etotal ke pe c_1[4]

# Neighbor lists
#
neigh_modify        delay 0 every 1 check yes

# Set fixes
#
fix                 1 all momentum 10 linear 1 1 1 rescale
fix                 2 all nve
fix                 3 all temp/csvr ${TEMP} ${TEMP} 500.0 928347
fix                 3 all temp/csvr 273 ${TEMP} 500.0 928347
fix                 3 all temp/csvr 273 273 500.0 928347
fix                 4 all press/berendsen iso ${PRES} ${PRES} 1000.0 modulus 20000
fix                 4 all press/berendsen iso 1 ${PRES} 1000.0 modulus 20000
fix                 4 all press/berendsen iso 1 1 1000.0 modulus 20000

# Run 0.5 ns equilibration
#
dump		    1 all custom 1000 eq.${NAME}.dump id type x y z vx vy vz
dump		    1 all custom 1000 eq.ice_273K_1atm_mW.dump id type x y z vx vy vz
run                 100000
Neighbor list info ...
  update every 1 steps, delay 0 steps, check yes
  max neighbors/atom: 2000, page size: 100000
  master list distance cutoff = 6.3065
  ghost atom cutoff = 6.3065
  binsize = 3.15325, bins = 17 17 17
  1 neighbor lists, perpetual/occasional/extra = 1 0 0
  (1) pair sw, perpetual
      attributes: full, newton on
      pair build: full/bin/atomonly
      stencil: full/bin/3d
      bin: standard
Per MPI rank memory allocation (min/avg/max) = 4.800 | 4.800 | 4.801 Mbytes
Step Temp Press Volume TotEng KinEng PotEng c_1[4] 
       0          273   -4579.0166    131927.58   -46937.445    3332.3519   -50269.797            0 
     100    216.14431   -643.10374     125235.2   -45924.174    2638.3476   -48562.521   0.28455954 
     200    216.07352   -26.284637    124619.09   -45139.806    2637.4836    -47777.29     0.364453 
     300    223.40793    1.6308006    124724.43   -44617.064    2727.0103   -47344.075   0.37008716 
     400     243.4142   -29.450314    124933.64    -44315.46    2971.2152   -47286.675   0.35208286 
     500    261.79843    75.120489    125059.95   -44060.871    3195.6209   -47256.492   0.35491769 
     600    264.68935    72.626422    125142.02   -43802.434    3230.9087   -47033.342   0.36405794 
     700    265.68757   -7.7850316    125192.63   -43744.745    3243.0933   -46987.839   0.34267727 
     800    274.44277   -33.392562    125224.66   -43668.261    3349.9629   -47018.224   0.37740322 
     900    280.06663   -4.6879598     125231.7   -43654.086    3418.6101   -47072.696   0.33913238 
    1000    274.58975   -38.917084    125253.46   -43729.526     3351.757   -47081.283   0.34047892 
    1100    268.25629   -15.139839    125233.11   -43663.064    3274.4481   -46937.512   0.38827008 
    1200    272.68787    48.885187    125257.19   -43642.935    3328.5418   -46971.477   0.34339724 
    1300    275.11864   -3.6527579    125264.94   -43574.408    3358.2129   -46932.621   0.34578245 
    1400    271.18663    18.080873    125282.26   -43640.916    3310.2171   -46951.133   0.37686146 
    1500    271.66718    2.0421178     125225.3   -43695.871     3316.083   -47011.954   0.34602309 
    1600    270.76229   -15.673642    125264.42   -43659.444    3305.0375   -46964.481   0.35468937 
    1700    274.68554   -19.466091     125222.3    -43662.13    3352.9263   -47015.057   0.37644384 
    1800    277.01195    24.893085     125229.8   -43625.645    3381.3235   -47006.969   0.33060637 
    1900    276.79619   -14.568861    125230.42   -43553.269    3378.6897   -46931.959   0.35737985 
    2000    277.19276   -1.8065414    125282.09   -43519.197    3383.5305   -46902.727    0.3637854 
    2100    272.92603    9.7083084    125241.58   -43661.426     3331.449   -46992.875   0.34159222 
    2200     278.7322   -16.998946    125210.85   -43605.132    3402.3215   -47007.453   0.35176333 
    2300    269.55242   -21.344285    125242.97   -43565.285    3290.2693   -46855.554   0.37976743 
    2400      272.437   -29.999346    125228.92    -43590.14    3325.4797    -46915.62   0.35824744 
    2500    277.74304    22.375526    125234.94   -43617.142    3390.2473   -47007.389   0.33850662 
    2600    272.61415   -51.512122    125205.69   -43639.495    3327.6421   -46967.137   0.37862774 
    2700    271.71012   -23.708129    125214.97   -43648.507    3316.6071   -46965.114   0.34736249 
    2800    275.14525   -14.214633    125234.08   -43550.548    3358.5377   -46909.086   0.35607248 
    2900    274.63653   -25.602355    125251.07   -43557.967    3352.3281   -46910.295   0.37675022 
    3000    275.59128     2.701084    125229.65    -43607.28    3363.9821   -46971.262   0.33930834 
    3100    275.78329   -27.108322     125229.9   -43580.392    3366.3259   -46946.718   0.35499457 
    3200    275.80987   -23.612974     125216.1    -43667.06    3366.6504    -47033.71    0.3642749 
    3300    268.64783    17.358011    125176.96   -43756.426    3279.2275   -47035.653   0.33586131 
    3400    273.86561    39.887095    125207.58    -43691.26    3342.9178   -47034.178   0.35595677 
    3500    276.96285    9.0039515    125217.41   -43656.573    3380.7241   -47037.297   0.36976758 
    3600    276.78165   -11.538346    125262.99   -43668.142    3378.5122   -47046.654    0.3312065 
    3700    275.82721    31.392838    125250.33   -43625.853     3366.862   -46992.715   0.35627212 
    3800    275.67266    12.815948    125250.31   -43614.584    3364.9754    -46979.56   0.35157933 
    3900      277.947   -29.237991    125254.07   -43618.402     3392.737   -47011.139   0.34327146 
    4000    276.03248     3.611226    125219.27   -43654.883    3369.3676   -47024.251   0.36354305 
    4100    274.27161   -2.1997301    125211.76   -43677.316    3347.8737    -47025.19   0.35871479 
    4200    275.49239   -36.006769     125189.3   -43626.166    3362.7751   -46988.941   0.35045745 
    4300     268.9804   -34.133772    125170.92   -43749.838    3283.2869   -47033.125   0.35833774 
    4400     275.3849   0.74195247     125160.4   -43645.423    3361.4629   -47006.886   0.37310734 
    4500    271.31772    13.437173    125154.11   -43695.547    3311.8173   -47007.364   0.34955663 
    4600    271.33812   -1.9593869    125136.81    -43726.34    3312.0663   -47038.407   0.35904022 
    4700    274.73332     18.49182    125166.82   -43639.203    3353.5095   -46992.713   0.36528504 
    4800    277.64585    5.0441152     125212.6   -43549.726     3389.061   -46938.787   0.34905162 
    4900    272.86755    27.005056     125222.8   -43511.167    3330.7351   -46841.902   0.36806462 
    5000    274.66141    3.4860262    125251.84   -43629.088    3352.6318    -46981.72   0.34821832 
    5100     278.4902    35.646811     125224.8   -43554.796    3399.3676   -46954.163   0.33661899 
    5200    276.36033    5.6051886    125230.44   -43620.005    3373.3695   -46993.374    0.3724791 
    5300    270.17572   -48.309713    125184.68   -43719.319    3297.8776   -47017.197    0.3523688 
    5400    268.92909    -29.02671    125149.59    -43694.82    3282.6607   -46977.481   0.35131446 
    5500    275.38437    44.115101    125165.27   -43666.866    3361.4565   -47028.323   0.36303522 
    5600    270.05313    19.532275     125179.6   -43701.279    3296.3812    -46997.66   0.34779582 
    5700    269.61726    -4.787955    125184.04   -43690.495    3291.0607   -46981.556    0.3539444 
    5800    273.49286    39.073325    125201.28   -43637.123     3338.368   -46975.491   0.35114128 
    5900     273.5089    9.5826989    125196.11    -43711.16    3338.5637   -47049.723   0.35582068 
    6000    271.95801    10.385864    125195.91   -43692.383    3319.6329   -47012.016   0.34010061 
    6100    271.29087   -17.014585     125191.7   -43768.588    3311.4896   -47080.078   0.35540696 
    6200    268.99278    2.3926635    125170.98   -43743.273    3283.4381   -47026.711   0.34874184 
    6300    277.05652    34.358436    125218.37   -43635.549    3381.8674   -47017.416   0.33483786 
    6400    271.21326   -22.610193    125223.75   -43684.811    3310.5422   -46995.353   0.37145311 
    6500    266.29587   -11.519691    125208.68   -43697.485    3250.5185   -46948.004   0.35212032 
    6600    267.24405    2.1969199    125186.19   -43702.266    3262.0924   -46964.359   0.34646078 
    6700    274.59348    14.349313    125186.89   -43748.644    3351.8025   -47100.447   0.35739385 
    6800    272.01422    35.773393    125180.52   -43706.062    3320.3191   -47026.381   0.34851836 
    6900    273.99493    59.180344     125189.6   -43637.404    3344.4964     -46981.9   0.34618801 
    7000    271.77218   -8.8569897    125227.36   -43635.813    3317.3646   -46953.177   0.36228576 
    7100    271.05868   -7.5648361    125214.42   -43643.095    3308.6553    -46951.75   0.34976319 
    7200    267.69944    -7.915741    125207.25    -43749.77    3267.6511   -47017.421   0.34305455 
    7300    269.75087    12.664459    125163.29   -43790.517    3292.6916   -47083.209     0.365858 
    7400    276.20775   -8.9168087    125193.15   -43685.847     3371.507   -47057.354   0.33838993 
    7500    273.24581    50.773943    125193.05   -43621.293    3335.3524   -46956.645   0.35216427 
    7600    275.28726    60.370332    125213.92   -43598.719    3360.2711    -46958.99   0.36674783 
    7700    268.10394   -19.689236    125224.31   -43688.125    3272.5885   -46960.714   0.35109549 
    7800    271.89893    23.096691    125178.74   -43728.282    3318.9118   -47047.194    0.3495724 
    7900    271.51401  -0.61638077    125187.15   -43686.313    3314.2133   -47000.527   0.36407447 
    8000    275.45011    18.969212    125217.48   -43597.161     3362.259    -46959.42   0.34984205 
    8100    274.33234  -0.94059093    125211.95   -43565.197     3348.615   -46913.812   0.34786943 
    8200    279.13855    43.236469    125200.29   -43580.518    3407.2816     -46987.8   0.37121315 
    8300    275.16001    -52.74891     125228.3   -43547.074    3358.7178   -46905.792   0.34239647 
    8400    279.96668     8.072385    125249.14   -43531.201    3417.3901   -46948.591   0.34796479 
    8500    273.70934   -53.615954       125261   -43614.669    3341.0104   -46955.679   0.37587256 
    8600    275.84433   -4.4107603    125238.21   -43630.697     3367.071   -46997.768   0.33685683 
    8700     274.5855    3.2342207    125221.72   -43604.128    3351.7051   -46955.833   0.34955193 
    8800    275.32413   -21.223822    125231.01   -43637.853    3360.7211   -46998.574   0.36710402 
    8900    270.47749    7.5552098    125231.31       -43699     3301.561   -47000.561    0.3358794 
    9000    275.08396    31.578513    125232.52   -43632.727    3357.7895   -46990.516   0.34946084 
    9100    275.91703   -11.992652    125238.81    -43682.37    3367.9584   -47050.328   0.35688248 
    9200    274.29108   -2.0263803    125254.37   -43584.587    3348.1113   -46932.698   0.33042972 
    9300    264.85128   -28.914113    125211.46    -43714.29    3232.8852   -46947.175   0.36221135 
    9400    268.32005   -6.4565009    125220.47   -43685.072    3275.2264   -46960.298   0.36993873 
    9500    272.65227   -59.207665    125235.29   -43730.183    3328.1073   -47058.291   0.33706029 
    9600    267.28805   -20.707539    125204.18   -43715.851    3262.6295   -46978.481   0.34891323 
    9700     270.4579    12.481086    125216.53   -43603.257     3301.322   -46904.579   0.37287754 
    9800    277.56341   -19.158382    125250.02   -43566.486    3388.0547   -46954.541   0.33953247 
    9900    280.54518     5.347213    125257.06    -43591.86    3424.4515   -47016.311   0.33883279 
   10000    272.29745   -10.393384    125241.08   -43639.244    3323.7763   -46963.021   0.37257093 
   10100    273.55816    1.7732994    125231.71   -43590.884     3339.165   -46930.049   0.32894687 
   10200    272.69307   -50.297926    125279.95   -43571.204    3328.6053    -46899.81   0.35478872 
   10300    277.67719    1.5350125    125278.72   -43565.208    3389.4437   -46954.652   0.36748257 
   10400    275.96294    13.006679    125268.68   -43559.546    3368.5188   -46928.065   0.32122916 
   10500    270.41972   -24.777606    125260.43   -43611.365    3300.8559   -46912.221   0.35709255 
   10600    272.03528     32.34464    125268.59   -43635.965    3320.5761   -46956.542   0.36330166 
   10700    274.05111   -36.380685    125221.78   -43667.169    3345.1822   -47012.351   0.33021482 
   10800    269.81928   -24.292104    125192.91   -43776.466    3293.5266   -47069.993   0.35295232 
   10900    264.65054   -7.1455967    125163.12   -43758.724    3230.4349   -46989.159   0.36959837 
   11000    271.62365    -2.355133    125179.07   -43773.556    3315.5516   -47089.107   0.32676257 
   11100    270.33594    -11.54726    125178.47   -43692.075    3299.8332   -46991.908   0.36466375 
   11200    269.47542   -16.276626    125184.85   -43781.004    3289.3294   -47070.334   0.36147765 
   11300    268.75658    5.4173268    125197.64   -43711.745     3280.555     -46992.3   0.33469488 
   11400    270.76911   0.62959249    125210.26   -43687.073    3305.1207   -46992.194   0.35552592 
   11500    275.06479    12.577576    125230.05   -43596.046    3357.5555   -46953.601   0.36374906 
   11600    270.24061    24.280185    125221.84   -43588.848    3298.6696   -46887.517   0.33403794 
   11700    279.09779    9.7383537    125247.67    -43471.08     3406.784   -46877.864   0.36178533 
   11800    275.57746   -19.857551    125232.18   -43552.386    3363.8134   -46916.199   0.38006474 
   11900    275.51439   -9.6938634    125227.33   -43592.063    3363.0436   -46955.106   0.32953067 
   12000    278.44678     19.99261    125224.52   -43544.735    3398.8375   -46943.572   0.36456087 
   12100    273.00501    2.0200732    125231.48   -43618.411    3332.4131   -46950.824   0.36692167 
   12200    275.75181   -15.827598    125224.73   -43613.546    3365.9416   -46979.488   0.32980394 
   12300    277.39637    46.506355    125202.32   -43663.931    3386.0159   -47049.947    0.3577159 
   12400    276.54777    -15.41303    125201.45   -43624.801    3375.6575   -47000.459    0.3622341 
   12500    275.58213   -19.948892    125226.55   -43576.234    3363.8704   -46940.104   0.33770935 
   12600    273.96851   -27.608097    125236.32   -43568.057    3344.1739   -46912.231   0.36969506 
   12700    278.13905    43.298624    125229.24    -43596.23    3395.0812   -46991.311   0.36135024 
   12800     276.7023    19.104253    125223.36    -43623.79    3377.5437   -47001.334   0.32528251 
   12900    276.79656    23.003215    125238.32   -43663.336    3378.6943   -47042.031   0.36227866 
   13000    272.33753    25.672716    125237.94    -43667.79    3324.2655   -46992.055   0.35792992 
   13100    271.04997   -10.317695    125224.88   -43695.323     3308.549   -47003.872   0.32693823 
   13200    269.90783   -7.2840833    125196.93   -43738.422    3294.6076    -47033.03   0.36299961 
   13300    271.22219    2.0680994    125157.36   -43783.025    3310.6511   -47093.676   0.36034075 
   13400    263.56394   -5.5586905     125131.5   -43828.164    3217.1714   -47045.336   0.33920044 
   13500    269.93236    7.2191729    125164.57    -43717.36    3294.9069   -47012.267   0.36667291 
   13600     272.1557    15.810121    125193.53   -43693.784     3322.046    -47015.83   0.36303973 
   13700    273.75754    11.710142    125206.54   -43702.107    3341.5988   -47043.706   0.32232129 
   13800    276.82655    3.8447589    125245.87   -43667.468    3379.0603   -47046.528   0.36216907 
   13900    274.99219   -28.711977    125248.38   -43631.019    3356.6693   -46987.689   0.34852836 
   14000    276.47308    19.357727    125295.88   -43548.194    3374.7457    -46922.94   0.31756251 
   14100    275.72843   -5.7240569    125247.83   -43622.835    3365.6562   -46988.491   0.36502312 
   14200    272.76152    -16.22044    125262.34    -43621.22    3329.4409   -46950.661   0.34328496 
   14300    269.69232   -39.287083    125222.41   -43653.871     3291.977   -46945.848   0.34315507 
   14400    272.12335   -13.691353    125209.96   -43696.474    3321.6512   -47018.125   0.36152375 
   14500    272.66379    2.6414168    125200.93   -43703.381     3328.248   -47031.629   0.34530398 
   14600    267.88945    -4.954202    125190.32   -43694.898    3269.9704   -46964.868   0.33561187 
   14700    270.87528    66.797143    125227.55   -43654.378    3306.4167   -46960.795   0.36361958 
   14800     271.6502   -17.588867    125234.71   -43625.369    3315.8757   -46941.245   0.35268147 
   14900    280.94421     39.15598    125256.62   -43608.513    3429.3223   -47037.835    0.3297379 
   15000    269.17127     16.57082    125207.18    -43665.38    3285.6169   -46950.997   0.37193352 
   15100    266.31084    8.9016608    125221.95   -43693.849    3250.7012    -46944.55   0.35036295 
   15200    275.56221    -1.982952    125212.33   -43649.158    3363.6273   -47012.785   0.33502453 
   15300     277.2272   -7.4537924    125209.45   -43695.642    3383.9509   -47079.592   0.36219142 
   15400    272.35714    7.8368678    125182.42   -43729.907    3324.5049   -47054.412   0.34579905 
   15500    271.02185    11.905968    125207.92   -43659.018    3308.2058   -46967.224   0.33505076 
   15600    278.91439    57.404568    125264.39   -43546.458    3404.5453   -46951.004   0.36517501 
   15700     278.9243    25.126623    125280.59   -43532.984    3404.6664    -46937.65   0.33596562 
   15800    273.13157    16.187549    125258.07   -43543.337    3333.9579   -46877.295   0.34279036 
   15900     275.0955    3.5430453    125250.52   -43551.393    3357.9304   -46909.323    0.3734197 
   16000     277.9999    12.680372    125226.67   -43600.981    3393.3828   -46994.364   0.34028585 
   16100    275.29041    14.134029    125202.81   -43662.974    3360.3096   -47023.283   0.34062705 
   16200    278.53086    1.2232417    125225.53   -43630.851    3399.8639   -47030.715     0.363461 
   16300    271.01087   -23.900188    125237.27   -43651.463    3308.0717   -46959.535   0.34884148 
   16400     272.8046   -15.650398    125236.42   -43667.358    3329.9668   -46997.325   0.33668117 
   16500     275.6347    20.394336    125239.92   -43585.811    3364.5121   -46950.323   0.36607202 
   16600    274.98714   -10.681861    125238.98   -43552.443    3356.6078   -46909.051   0.34940776 
   16700    271.87176   -9.0405354    125248.14   -43586.305    3318.5801   -46904.885   0.34100012 
   16800    270.42079   -28.408298    125250.77   -43631.813    3300.8689   -46932.682   0.37252187 
   16900    271.39247    -1.656722    125232.74   -43646.608    3312.7297   -46959.338   0.33667056 
   17000    271.49182    32.423863    125212.65   -43701.502    3313.9424   -47015.444   0.33920915 
   17100    278.57007    6.5013305    125240.48   -43644.304    3400.3425   -47044.647   0.36672909 
   17200    270.50815   -12.820668    125230.13   -43698.695    3301.9353    -47000.63   0.34180022 
   17300    267.53396    23.250823    125223.78   -43765.917    3265.6312   -47031.548   0.33830303 
   17400    267.39812   -1.5723695    125183.35   -43785.965     3263.973   -47049.938   0.36740654 
   17500    268.99062    25.091855    125237.06     -43671.4    3283.4117   -46954.812   0.33508852 
   17600    265.45886   -22.925345    125238.47    -43686.84    3240.3016   -46927.141   0.34406579 
   17700    271.27113    -9.779399    125234.41   -43719.984    3311.2486   -47031.232   0.36059147 
   17800    270.23855    7.5598498    125238.36   -43719.368    3298.6444   -47018.012   0.32754041 
   17900    273.64319    4.2612038    125252.59   -43645.915     3340.203   -46986.118   0.34475846 
   18000    274.58008    -27.01961    125273.77   -43606.108     3351.639   -46957.747   0.36411024 
   18100    275.62555    2.4200923    125271.26   -43567.632    3364.4004   -46932.032   0.33486901 
   18200    275.23849   -20.562582    125272.69   -43665.874    3359.6758    -47025.55    0.3368294 
   18300    277.13488    30.583657    125262.47   -43608.449     3382.824   -46991.273   0.36291633 
   18400    269.73761   -36.917471    125240.96   -43706.031    3292.5298   -46998.561    0.3315891 
   18500    271.57121    17.495172    125249.55   -43675.894    3314.9115   -46990.805   0.34250048 
   18600    280.67139    11.711116    125252.61   -43599.719     3425.992   -47025.712   0.36304606 
   18700    276.27185   -10.739745    125249.78    -43628.14    3372.2894    -47000.43   0.33399455 
   18800    273.36462   0.77582715    125232.75   -43658.256    3336.8026   -46995.059   0.35121918 
   18900    272.09309   -47.074956    125235.96   -43633.518    3321.2818     -46954.8   0.36415669 
   19000    267.39581    -7.507798    125234.46   -43606.409    3263.9448   -46870.354   0.34135626 
   19100    272.49257     18.16114    125232.75   -43578.726     3326.158   -46904.884   0.35073017 
   19200    271.34462    32.699609    125242.67   -43632.908    3312.1457   -46945.053   0.36042221 
   19300    278.80682    46.696568    125295.97   -43496.862    3403.2324   -46900.095   0.33465818 
   19400    271.31579   -13.364399     125291.4   -43575.782    3311.7937   -46887.576   0.35459746 
   19500    277.77491    4.5972584    125301.64   -43542.771    3390.6365   -46933.408   0.34328464 
   19600    281.38499    52.612605     125294.1   -43568.521    3434.7026   -47003.223   0.32679285 
   19700    272.04667   -12.750926    125290.33     -43573.1    3320.7151   -46893.815   0.35776347 
   19800     280.3365    36.228116    125267.58   -43570.093    3421.9043   -46991.997   0.34181322 
   19900    279.71115   -6.4889749    125260.65   -43594.961     3414.271   -47009.232   0.34231856 
   20000    271.60263    9.3089914    125270.06   -43629.481     3315.295   -46944.776   0.35181145 
   20100    267.01803   -16.338571    125244.83   -43670.279    3259.3335   -46929.612   0.35200476 
   20200    267.35982    4.6073752    125240.34   -43692.877    3263.5055   -46956.383   0.33955421 
   20300    273.54069   -6.1163217    125253.34   -43623.479    3338.9517    -46962.43   0.35154988 
   20400    273.99383    2.9778239    125269.03   -43643.629     3344.483   -46988.112   0.34576858 
   20500    270.11718   -2.0980819    125246.02    -43695.68     3297.163   -46992.843   0.33385403 
   20600    274.14236   -4.4284054    125209.15   -43723.249     3346.296   -47069.545   0.36440702 
   20700     275.0214    1.4823171    125199.58   -43681.592     3357.026   -47038.618   0.34855413 
   20800    278.44035    11.529062    125229.58   -43604.545     3398.759   -47003.304   0.33462287 
   20900    271.38975    1.5923035    125269.08   -43617.305    3312.6965   -46930.001   0.36676555 
   21000    273.82771    -13.87035    125241.54   -43657.682    3342.4553   -47000.138   0.33964715 
   21100    271.41187     10.38746    125242.16   -43608.837    3312.9665   -46921.804   0.33658989 
   21200    271.00482   -11.865979    125248.22   -43599.653    3307.9979   -46907.651   0.36933024 
   21300    277.58492    2.9726049    125237.61   -43560.977    3388.3174   -46949.295   0.34382807 
   21400    276.24977    13.050468    125241.27   -43612.883      3372.02   -46984.903   0.33540537 
   21500    277.61694   -7.3217342    125227.18   -43549.064    3388.7082   -46937.772   0.36343214 
   21600    270.16585   -24.902685    125225.02   -43534.123    3297.7571    -46831.88   0.34227019 
   21700    267.37577    -46.74869    125212.53   -43632.322    3263.7001   -46896.022   0.35118876 
   21800    277.26705    52.085066     125191.2   -43649.023    3384.4373    -47033.46   0.36399105 
   21900    273.28415    8.7391707     125205.6   -43651.721    3335.8203   -46987.541   0.33826673 
   22000    271.42205     27.07068    125198.61    -43706.76    3313.0907    -47019.85   0.33297797 
   22100    266.17575    51.530764    125206.38   -43681.653    3249.0523   -46930.705   0.36199415 
   22200    269.13576    7.8663937     125190.7    -43801.16    3285.1834   -47086.343   0.33067566 
   22300    272.37526    20.630971    125206.43   -43722.176     3324.726   -47046.902   0.33257689 
   22400    276.31738   -6.5385647    125241.95   -43616.715    3372.8452   -46989.561   0.36484342 
   22500    274.83755    26.040462    125243.46   -43619.668    3354.7817    -46974.45   0.33138979 
   22600    272.38006    27.524774    125238.97   -43641.744    3324.7847   -46966.529   0.33273561 
   22700    271.04053    5.1463461    125217.98    -43694.16    3308.4337   -47002.593   0.36119314 
   22800    272.50306    25.903448    125222.54   -43631.769     3326.286   -46958.055   0.32472723 
   22900    272.53352    7.2645032    125213.65   -43660.234    3326.6579   -46986.892   0.34049016 
   23000    270.67071  -0.22430396    125198.94   -43718.264    3303.9196   -47022.183   0.36290489 
   23100    276.13674    32.834184    125210.06   -43640.502    3370.6403   -47011.143   0.32658643 
   23200    276.24239    2.1233525    125224.93   -43629.774    3371.9299   -47001.704   0.34176463 
   23300    270.25455    1.8353875    125241.29   -43630.098    3298.8398   -46928.938   0.36478268 
   23400    275.01138    -6.371873    125280.84    -43614.22    3356.9037   -46971.123   0.32248613 
   23500    275.47896   -5.0015375    125289.83   -43602.645    3362.6111   -46965.256   0.34389533 
   23600    278.41538    26.269316    125313.75   -43548.793    3398.4543   -46947.248   0.35469032 
   23700     276.0678    25.292432    125284.77   -43575.168    3369.7987   -46944.967   0.32536242 
   23800    278.31192   -19.921866    125291.32   -43580.037    3397.1914   -46977.229   0.34396795 
   23900    275.41027   -6.1489507    125268.26   -43667.236    3361.7727   -47029.009   0.35035541 
   24000    276.20644    20.980529    125234.17   -43617.099     3371.491    -46988.59    0.3284474 
   24100    277.08318    16.583384    125237.08   -43583.934    3382.1929   -46966.127   0.34123449 
   24200    274.41909    15.622377    125244.11   -43646.264    3349.6739   -46995.938   0.36017451 
   24300    270.92478   -21.561108    125224.94   -43685.917    3307.0208   -46992.938   0.32854026 
   24400    272.54655    -40.73529    125208.36   -43729.583    3326.8169     -47056.4   0.34416684 
   24500    271.89815    9.1258239    125204.04   -43689.414    3318.9022   -47008.316   0.36247072 
   24600    276.01501    37.009665    125191.86   -43732.148    3369.1544   -47101.302   0.31817859 
   24700    273.32138    -13.99613     125175.3   -43737.378    3336.2748   -47073.653   0.34729493 
   24800    269.99636   -3.4446321    125180.23   -43707.218    3295.6883   -47002.907   0.35602599 
   24900    265.38657   -44.922252    125181.15   -43723.564    3239.4191   -46962.983   0.33361116 
   25000    274.32744   -30.355667    125182.76   -43689.027    3348.5551   -47037.582   0.35242518 
   25100    270.03203    31.785333    125198.52   -43734.753    3296.1236   -47030.877   0.35544048 
   25200    264.98991    6.6780765    125189.31   -43838.642    3234.5774   -47073.219   0.32681664 
   25300    265.93165    25.398941    125158.47    -43785.99    3246.0727   -47032.063    0.3454961 
   25400    272.19112    -24.11898    125183.65   -43730.689    3322.4784   -47053.168   0.35632753 
   25500    271.90034   -0.1184697    125227.24   -43686.095     3318.929   -47005.024   0.32505208 
   25600    276.62924    4.7927571    125241.77   -43543.197    3376.6519   -46919.849   0.34630972 
   25700    275.59246   -49.039902    125222.48   -43652.787    3363.9966   -47016.783    0.3497741 
   25800     280.7329    31.180172    125210.53   -43544.893    3426.7429   -46971.636    0.3384825 
   25900    277.43407    1.7578558    125250.23   -43547.001     3386.476   -46933.477   0.34766394 
   26000    270.97235   -15.658589    125235.46   -43582.444    3307.6015   -46890.045   0.35568503 
   26100    271.57002    21.396511    125226.31     -43592.5     3314.897   -46907.396   0.33374312 
   26200    272.50736   -5.4158764    125225.79   -43631.802    3326.3385   -46958.141   0.35422238 
   26300    273.59299    8.8675336    125204.84   -43683.075    3339.5902   -47022.665    0.3514373 
   26400     272.8947    2.0191798    125221.19   -43707.642    3331.0666   -47038.709   0.33382206 
   26500    277.82134    16.301413    125234.53   -43615.796    3391.2032   -47006.999   0.34774086 
   26600    275.01717    30.721635    125243.49   -43579.951    3356.9743   -46936.925   0.35026271 
   26700    274.81117    1.5909839    125254.12   -43547.612    3354.4598   -46902.072   0.34618187 
   26800    270.88183    5.9321514    125243.75   -43604.387    3306.4966   -46910.884    0.3505555 
   26900    278.77122    30.048714    125229.87   -43578.217    3402.7978   -46981.014   0.34762524 
   27000    273.38196    15.935032    125228.03   -43571.377    3337.0142   -46908.392   0.34433905 
   27100     279.9108    12.733976    125231.19   -43563.602     3416.708    -46980.31   0.35137535 
   27200    271.78268   -45.304355    125206.48   -43597.235    3317.4928   -46914.728    0.3610791 
   27300      282.863    21.361663    125252.13   -43504.331    3452.7438   -46957.075   0.34118719 
   27400    277.47997   -10.418906    125247.27   -43536.095    3387.0362   -46923.132   0.35559936 
   27500    279.53396    15.755023    125202.85   -43634.349    3412.1082   -47046.457   0.34761571 
   27600    268.58145    -60.81243    125142.89    -43739.15    3278.4173   -47017.567   0.35100495 
   27700    272.70049    20.319447    125156.15    -43655.16     3328.696   -46983.856   0.35335162 
   27800    277.35035   -6.9779868    125189.19   -43578.456     3385.454    -46963.91   0.35676511 
   27900    268.61676   -22.486281    125176.04   -43662.429    3278.8482   -46941.277   0.34938918 
   28000     272.6488   -3.6969168    125153.42   -43721.261     3328.065   -47049.326   0.34976594 
   28100    270.94775    41.026173    125119.48   -43697.169    3307.3012    -47004.47    0.3584719 
   28200    275.74938   -20.373862    125170.75   -43681.784     3365.912   -47047.696   0.34375544 
   28300     272.1319    15.425646    125167.26   -43673.334    3321.7555    -46995.09   0.35949545 
   28400    267.68166   -2.4646688    125190.31   -43660.515     3267.434   -46927.949   0.35671122 
   28500     271.4019   -24.591254     125174.4   -43667.988    3312.8449   -46980.833   0.35040207 
   28600    269.97329    3.9748522       125171   -43685.697    3295.4066   -46981.104   0.35439145 
   28700    274.64863   -22.124609    125182.56   -43684.924    3352.4758     -47037.4   0.35357293 
   28800    274.24053   -20.563477    125161.16   -43702.222    3347.4944   -47049.716   0.34586657 
   28900     274.9725    -32.89951    125154.42   -43670.383    3356.4291   -47026.812    0.3518973 
   29000    269.16281    5.1463882    125168.09   -43639.911    3285.5135   -46925.425   0.35664084 
   29100    272.57661    3.6879015    125227.83   -43606.959    3327.1838   -46934.143   0.34983165 
   29200     281.0258    23.453206    125236.64   -43526.419    3430.3181   -46956.737   0.34698753 
   29300    278.56955     6.940328    125213.48   -43545.865    3400.3361   -46946.201   0.35623474 
   29400    277.31463   -19.160099    125236.39   -43602.152     3385.018    -46987.17   0.34894976 
   29500    273.26059    12.718472    125216.03   -43583.169    3335.5327   -46918.702     0.352256 
   29600    275.84409    25.207727    125226.96   -43579.573    3367.0681   -46946.641   0.35940282 
   29700    274.96873     18.59432    125239.48   -43638.022     3356.383   -46994.405   0.33627319 
   29800    272.61195   -32.241611     125194.9   -43732.264    3327.6152   -47059.879   0.34387998 
   29900    268.49094   -13.959239    125196.93   -43679.061    3277.3124   -46956.374   0.35758525 
   30000    269.69237     12.94857     125182.2   -43733.365    3291.9776   -47025.342   0.34356515 
   30100    274.70941   -2.7833601    125196.67   -43637.677    3353.2176   -46990.894   0.35262989 
   30200    272.73238   -55.312174    125219.12   -43689.277    3329.0852   -47018.362   0.34506635 
   30300    272.10093   -27.859666    125199.33   -43682.214    3321.3775   -47003.591   0.34711738 
   30400    274.13166    9.0199762    125220.62   -43652.851    3346.1655   -46999.016   0.34318359 
   30500    269.64171   -26.421834    125184.17   -43769.717    3291.3592   -47061.076   0.34622715 
   30600    275.68737    39.581245    125160.35   -43707.974     3365.155   -47073.129   0.34222412 
   30700    269.54599   -27.820007    125167.85   -43730.137    3290.1907   -47020.327   0.35014305 
   30800     273.2159    25.261051    125203.93   -43686.164    3334.9873   -47021.151   0.35112219 
   30900    269.81844   -37.034679    125241.04    -43625.12    3293.5165   -46918.637    0.3458532 
   31000    272.22763   -22.712952    125235.64   -43649.174    3322.9241   -46972.098    0.3470252 
   31100    275.56373   -10.590327    125216.84   -43654.436    3363.6458   -47018.082    0.3489019 
   31200    275.30514    59.878315    125225.99   -43646.697    3360.4893   -47007.186   0.33833501 
   31300    277.48167    22.215312    125249.08   -43550.948     3387.057   -46938.005   0.34286169 
   31400    274.91333    18.431144    125283.88   -43629.541    3355.7068   -46985.248   0.34531101 
   31500    272.14015     21.58158     125255.4   -43587.118    3321.8562   -46908.974   0.34329269 
   31600    273.99457    13.940348    125239.97   -43614.971    3344.4921   -46959.463   0.34894356 
   31700    278.00181   -50.433638    125236.51   -43612.432    3393.4061   -47005.838   0.35456085 
   31800    276.61589   -7.5877961    125256.09   -43591.095     3376.489   -46967.584    0.3399252 
   31900    270.87429   -11.787023    125219.92   -43639.699    3306.4046   -46946.103   0.35812429 
   32000     274.5241    13.438951    125227.39    -43629.03    3350.9557   -46979.986   0.34660191 
   32100    274.26347   -34.456953    125247.79   -43660.074    3347.7744   -47007.848   0.34069896 
   32200    271.88628   -21.995192    125187.53   -43759.691    3318.7573   -47078.448   0.34394903 
   32300    275.97097    12.750752    125156.71   -43724.186    3368.6168   -47092.803    0.3539827 
   32400    269.00829   -37.872923     125166.9   -43743.523    3283.6275   -47027.151   0.34670401 
   32500    272.53225   -6.8000887     125193.6   -43654.555    3326.6423   -46981.197   0.35248315 
   32600    274.99606    10.422817    125241.54   -43608.035    3356.7166   -46964.751   0.35704172 
   32700    273.41832   -33.102058    125215.49   -43691.012    3337.4581    -47028.47   0.34483856 
   32800    278.66168   -8.2904533    125236.62   -43578.564    3401.4607   -46980.025   0.35145451 
   32900    275.85382   -11.369159       125249    -43624.64    3367.1867   -46991.827   0.34700837 
   33000    281.47646    18.458463    125241.25   -43618.439    3435.8191   -47054.258   0.33954523 
   33100    278.78851  -0.15229226     125209.2   -43625.148    3403.0088   -47028.157   0.34719941 
   33200    277.03862    2.6333205    125196.44   -43643.957     3381.649   -47025.606   0.35233775 
   33300    274.53457   -21.397615    125198.91    -43625.45    3351.0835   -46976.534   0.34779213 
   33400    271.48114    8.1244909    125186.86   -43654.024     3313.812   -46967.836   0.35641506 
   33500    269.63293    20.393707    125175.94   -43706.134     3291.252   -46997.386   0.35210166 
   33600    269.24565    45.045667    125175.94   -43682.859    3286.5247   -46969.383   0.35031039 
   33700    272.45407    42.588057     125197.6   -43649.167    3325.6881   -46974.855   0.35565066 
   33800     281.2179    22.158806    125255.58   -43518.918     3432.663   -46951.581   0.34342578 
   33900     271.0281    33.419385     125269.4   -43503.631     3308.282   -46811.913   0.35515365 
   34000    274.26912   -24.271807    125238.75   -43657.111    3347.8433   -47004.954   0.34286048 
   34100     274.0181   -29.146952    125204.06   -43646.031    3344.7793    -46990.81    0.3592635 
   34200    269.89945   -38.701972    125216.29   -43680.939    3294.5052   -46975.444   0.36021006 
   34300    269.72479   -10.735233    125222.84   -43721.186    3292.3733   -47013.559   0.34091397 
   34400    270.95011   -7.8562808    125207.47   -43695.298      3307.33   -47002.628    0.3534285 
   34500    278.39065    34.447005    125250.73   -43575.383    3398.1525   -46973.536   0.34650144 
   34600    277.11536   -18.834826    125273.11    -43535.38    3382.5857   -46917.966   0.35042847 
   34700    276.85097   -29.385726    125241.03   -43624.516    3379.3584   -47003.874   0.35131023 
   34800    273.53064    -40.81176    125195.77   -43674.186    3338.8291   -47013.015   0.35642121 
   34900    276.89651    3.6188947    125209.59   -43638.706    3379.9143    -47018.62   0.34984101 
   35000    275.06285   -3.7447076     125221.4   -43655.877    3357.5319   -47013.409   0.34591259 
   35100    271.85639   -5.7813486    125268.67   -43625.231    3318.3925   -46943.624   0.35445902 
   35200    274.67401   0.95669742     125263.7   -43581.383    3352.7855   -46934.168   0.33950597 
   35300    276.16684    -6.231108    125235.06   -43609.487    3371.0077   -46980.495   0.35129146 
   35400    269.42918   -52.212298    125223.25   -43650.806     3288.765   -46939.571    0.3569461 
   35500    274.97977    6.6981793    125204.07   -43660.982    3356.5178     -47017.5   0.34229006 
   35600    273.92739   -9.2045668    125253.13   -43648.974     3343.672   -46992.646   0.34869354 
   35700    272.94167    -5.064886    125260.54   -43608.071    3331.6398   -46939.711   0.35734392 
   35800    275.13259   -18.567991    125251.94   -43478.645    3358.3831   -46837.028   0.35112099 
   35900    279.87346    17.157548    125239.34   -43569.283    3416.2522   -46985.535   0.35722008 
   36000    276.20198    2.0268486    125214.89   -43634.801    3371.4365   -47006.237   0.35335718 
   36100    276.87303   -15.441131    125240.21   -43678.625    3379.6276   -47058.253   0.33925886 
   36200    274.73413    14.961826    125223.04   -43660.333    3353.5195   -47013.853   0.35331933 
   36300    270.13752   -16.856101    125217.97   -43662.578    3297.4112   -46959.989   0.35007508 
   36400    263.38915    12.549444    125241.69   -43678.252    3215.0378    -46893.29   0.34361741 
   36500    272.25719    20.355349    125240.06   -43686.499    3323.2848   -47009.784   0.34293891 
   36600    270.81735    10.169894    125240.77   -43645.339    3305.7096   -46951.048   0.35354563 
   36700    271.32722   -11.490872    125250.59   -43698.271    3311.9332   -47010.204   0.33645564 
   36800    274.59691   -10.032255     125199.5   -43755.787    3351.8445   -47107.632   0.34880933 
   36900    272.67677    19.100391     125183.4   -43703.802    3328.4064   -47032.208   0.36097815 
   37000    273.74465    28.268026    125204.26   -43684.858    3341.4414   -47026.299   0.33485552 
   37100    276.72155    22.202453       125212    -43719.39    3377.7787   -47097.169   0.34007945 
   37200    274.52891    20.388828    125214.41    -43729.34    3351.0144   -47080.355    0.3511762 
   37300    269.07385    -7.333034    125199.44   -43733.165    3284.4277   -47017.593   0.34142264 
   37400     266.9014   -14.529432    125205.12   -43760.151    3257.9099   -47018.061   0.35007759 
   37500    271.15959    30.677997    125199.68   -43711.778     3309.887   -47021.665   0.35730292 
   37600    268.28071   -7.1927204     125203.5    -43737.69    3274.7462   -47012.436   0.33677407 
   37700     268.3327    22.208008    125159.99   -43833.541    3275.3808   -47108.922   0.34870337 
   37800    261.06215   -10.677264    125152.87   -43867.402    3186.6336   -47054.035   0.36150595 
   37900    272.33506    30.365658    125170.39   -43757.311    3324.2353   -47081.546   0.33562885 
   38000    271.24399   -12.872428    125198.72    -43673.44    3310.9172   -46984.357   0.35491242 
   38100    275.67649    46.695459    125243.45   -43673.995    3365.0222   -47039.017   0.34931529 
   38200    277.09587    9.7530544    125228.41   -43620.812    3382.3478    -47003.16   0.34199123 
   38300    271.95956   -8.1422373    125214.25   -43647.498    3319.6518    -46967.15   0.34789913 
   38400     271.0396   -24.025367    125253.17   -43613.326    3308.4225   -46921.748   0.36089112 
   38500    273.21538   -6.2462767    125215.29   -43638.738     3334.981   -46973.719   0.34452883 
   38600    271.70342   -5.1636293    125251.52   -43638.224    3316.5253   -46954.749    0.3467926 
   38700    275.06126   -14.076433    125263.94   -43613.038    3357.5125    -46970.55   0.36185849 
   38800    272.76209    5.9562433    125256.04   -43654.419    3329.4479   -46983.866   0.33327701 
   38900    277.21647    26.394458    125246.69   -43558.146    3383.8199   -46941.966   0.34961374 
   39000    269.59554   -2.0025194    125254.19   -43604.389    3290.7956   -46895.185   0.35930464 
   39100    273.53843   -12.144576     125261.6   -43641.039    3338.9242   -46979.963   0.33363649 
   39200    274.67365    2.5043021    125226.02   -43739.995    3352.7812   -47092.776   0.34441126 
   39300    266.98242     25.89414    125174.37   -43774.518    3258.8988   -47033.417   0.35984239 
   39400    273.02556     40.07196    125227.02   -43629.595    3332.6639   -46962.259   0.33955932 
   39500    273.37732    6.7510392    125234.51   -43656.897    3336.9577   -46993.855   0.34556221 
   39600    273.83078   -18.055816    125262.21   -43624.382    3342.4927   -46966.875   0.35829897 
   39700    274.40553   0.97739224    125261.12   -43631.087    3349.5083   -46980.595   0.33375307 
   39800    269.02379   -30.241392    125224.06   -43656.599    3283.8166   -46940.416   0.34722045 
   39900    271.38912    16.694953     125238.8   -43606.789    3312.6888   -46919.478   0.36285517 
   40000     271.5373    7.4411036    125245.65   -43652.155    3314.4976   -46966.652   0.34217207 
   40100    269.19291   -2.0237464    125218.73   -43668.676     3285.881   -46954.557   0.34409365 
   40200     272.8808   -11.953671    125227.56   -43655.933    3330.8968    -46986.83   0.36841489 
   40300    269.41379    18.318371    125219.96   -43709.935    3288.5771   -46998.512   0.34115695 
   40400    272.71942   -7.6348799    125202.37   -43746.495     3328.927   -47075.422   0.34587772 
   40500    271.92834   -3.8026427    125194.26   -43640.905    3319.2708   -46960.175   0.36741444 
   40600    274.40216   -26.033071    125215.79   -43650.715    3349.4672   -47000.182   0.34077737 
   40700    268.88274   -44.926619    125179.73   -43709.509    3282.0949   -46991.604   0.35539713 
   40800    271.13081    34.599317    125166.48   -43622.567    3309.5358   -46932.102   0.37085428 
   40900     271.3448   -14.563657    125184.74   -43688.478    3312.1478   -47000.625   0.34429467 
   41000    272.65569    10.973676    125212.54   -43691.084    3328.1491   -47019.233   0.35057747 
   41100    268.53691   -23.706839    125180.68   -43689.619    3277.8736   -46967.492   0.36535059 
   41200    274.10833    7.0827329    125236.38   -43602.483    3345.8806   -46948.364   0.34032289 
   41300    273.73572   -12.413066    125228.21   -43642.229    3341.3324   -46983.561   0.35371888 
   41400    275.97137    71.777706     125227.1   -43626.637    3368.6217   -46995.259   0.35509156 
   41500    273.17426    23.852214    125241.44   -43600.997     3334.479   -46935.476   0.34219327 
   41600    276.36252    19.528746    125262.91   -43621.301    3373.3962   -46994.697   0.34465636 
   41700    269.32146   -29.114296    125234.45   -43722.459    3287.4501   -47009.909   0.35732669 
   41800     272.5535    23.412164    125212.74   -43650.793    3326.9017   -46977.694   0.34474365 
   41900    271.04656    -4.413835    125218.15   -43724.647    3308.5074   -47033.154   0.34525512 
   42000    270.27908   -14.738691     125222.8   -43699.764    3299.1391   -46998.904   0.36139037 
   42100    266.41747    6.5738186    125202.94   -43764.968    3252.0028   -47016.971    0.3353596 
   42200    274.23721    7.1248453    125192.11   -43710.757    3347.4538   -47058.211   0.34878271 
   42300    271.75015    6.5216875    125185.81    -43689.74    3317.0957   -47006.836   0.36932286 
   42400    270.82549   -23.546907    125225.37   -43699.479    3305.8089   -47005.288     0.336817 
   42500    271.80519   -36.535885    125224.09   -43671.075    3317.7675   -46988.843   0.35252124 
   42600    271.20837    10.544853    125204.64   -43680.806    3310.4825   -46991.289   0.36455818 
   42700     265.3276   -27.270064    125182.61   -43762.047    3238.6993   -47000.746   0.34607838 
   42800    272.69399    2.9669716    125183.58   -43684.088    3328.6166   -47012.704   0.35376537 
   42900    272.60984   -8.6682811    125200.42   -43715.952    3327.5894   -47043.541   0.35706845 
   43000    270.96943    12.146603    125212.78   -43697.059    3307.5659   -47004.624   0.33730513 
   43100    269.06268   -11.456614     125243.8   -43656.522    3284.2913   -46940.813   0.35826552 
   43200    272.07362   -15.297868    125247.29   -43669.063    3321.0441   -46990.107   0.35372676 
   43300    273.75697 -0.081964398    125217.66   -43712.959    3341.5918   -47054.551   0.33966258 
   43400    273.44239    9.6506681    125208.96   -43640.146    3337.7519   -46977.898   0.35048308 
   43500    273.33614    4.7146213    125242.44   -43653.243     3336.455   -46989.698   0.35157615 
   43600    276.58197    5.1833547    125203.86   -43676.417    3376.0749   -47052.492    0.3380762 
   43700    271.96889    12.096801    125181.18   -43746.742    3319.7657   -47066.507   0.34727842 
   43800    266.50217    20.195551    125166.35   -43765.442    3253.0366   -47018.479   0.36100666 
   43900    269.89294  -0.41363332    125168.63   -43691.801    3294.4258   -46986.227   0.34703794 
   44000    268.48692    10.209474    125153.97   -43775.863    3277.2633   -47053.126   0.35500279 
   44100    267.83615   -5.2226219    125169.26   -43780.117    3269.3198   -47049.437   0.35405166 
   44200    272.07919    14.097883    125174.99   -43701.274    3321.1121   -47022.387   0.33965122 
   44300    274.34599   -17.152862    125194.97   -43704.644    3348.7817   -47053.425   0.35278204 
   44400    271.20446   -12.724453    125174.97   -43736.012    3310.4348   -47046.447   0.35548744 
   44500    270.81774   -52.720939    125183.43   -43725.888    3305.7143   -47031.602   0.34334443 
   44600    273.16914    27.471051    125172.81    -43704.06    3334.4165   -47038.477   0.34954466 
   44700    264.84652    10.525127    125185.06   -43693.831    3232.8271   -46926.658   0.36450037 
   44800     270.9126    25.138837    125183.39   -43689.229    3306.8722   -46996.101   0.34351389 
   44900    266.71699   -7.4494239    125218.37   -43664.615    3255.6588   -46920.274   0.36135371 
   45000    268.12178   -11.351093    125232.22    -43671.59    3272.8063   -46944.397   0.36030393 
   45100     273.8619    34.234791    125261.62   -43581.669    3342.8725   -46924.541   0.33884097 
   45200     276.7547    -12.28042     125251.8   -43619.612    3378.1833   -46997.795   0.35622832 
   45300    273.79348   0.62796937    125269.13   -43662.766    3342.0374   -47004.804   0.34719437 
   45400    267.88821   -10.079305    125206.17   -43669.507    3269.9552   -46939.462   0.34874215 
   45500     272.1364   -7.4475895    125231.49   -43644.074    3321.8104   -46965.885   0.35607128 
   45600    272.62812    2.9812551    125233.48   -43613.365    3327.8126   -46941.178   0.35373659 
   45700    277.07206   -3.1684011    125242.75   -43595.092    3382.0571   -46977.149   0.34400103 
   45800    271.69519   -6.5882267    125239.11   -43637.389    3316.4248   -46953.814   0.35469172 
   45900    278.36829   -10.078438    125264.76   -43573.345    3397.8795   -46971.224   0.34177885 
   46000    275.01494   -1.0698173    125262.73    -43598.31    3356.9471   -46955.257   0.34664075 
   46100     278.6717    27.258823    125257.49   -43522.494     3401.583   -46924.077   0.35968494 
   46200    276.94108   -11.896849    125290.22   -43580.014    3380.4584   -46960.472   0.33828587 
   46300     275.4013    22.911667    125301.09   -43552.164    3361.6631   -46913.827   0.34207809 
   46400    277.76028   0.80374308    125279.66   -43608.305    3390.4579   -46998.762   0.35230496 
   46500    278.75951    35.470871    125275.18   -43546.125    3402.6549    -46948.78   0.34301365 
   46600    271.56804   -12.167555     125260.7   -43641.847    3314.8728    -46956.72   0.34665354 
   46700    280.61264   -27.186904    125250.99   -43576.838    3425.2749   -47002.113   0.35970147 
   46800    278.61912   -8.8082719    125277.23    -43569.88    3400.9412   -46970.822   0.34316187 
   46900    276.13066   -6.5531965    125237.04   -43601.424     3370.566    -46971.99   0.34730278 
   47000    271.14925    -30.20302    125233.44   -43661.511    3309.7608   -46971.272   0.36665281 
   47100    270.59114    -6.731779    125243.27   -43671.098    3302.9483   -46974.046   0.34210712 
   47200    271.91991    19.702515    125221.46   -43675.041    3319.1679   -46994.209   0.34931632 
   47300    271.89917   -17.437163    125248.32   -43740.054    3318.9146   -47058.969   0.34817121 
   47400    272.92135    55.011751    125232.76   -43689.115    3331.3918   -47020.507   0.34382709 
   47500    267.50852   -15.851809    125228.47   -43715.336    3265.3206   -46980.656   0.34522742 
   47600    273.54902   -11.932584    125212.62   -43686.561    3339.0534   -47025.615   0.35656744 
   47700      275.111    11.374469    125238.49    -43635.22    3358.1197    -46993.34   0.34973043 
   47800    272.17301   -23.105371    125238.88    -43679.08    3322.2573   -47001.337   0.33820169 
   47900    267.43653   -16.783449    125235.95   -43723.432    3264.4418   -46987.874   0.36452951 
   48000    270.98792    34.490428    125262.33   -43681.144    3307.7917   -46988.936   0.33981716 
   48100    266.57464   -1.3743052    125220.72   -43728.563    3253.9212   -46982.485   0.34013259 
   48200    270.82262    27.682951    125226.27   -43715.918    3305.7738   -47021.692   0.35195226 
   48300    276.81113    53.389045    125230.18   -43691.039    3378.8721   -47069.912   0.33602302 
   48400    267.34997   -7.6134881    125208.11   -43693.259    3263.3853   -46956.644   0.34339835 
   48500    266.68762   -1.4868523    125173.29   -43768.948    3255.3003   -47024.249   0.35460194 
   48600    269.68148    11.297261    125149.34    -43758.74    3291.8446   -47050.584   0.34901874 
   48700    277.60439   -41.645985     125200.9    -43672.82     3388.555   -47061.375   0.34190856 
   48800    270.24263   -5.0074367    125195.33   -43679.341    3298.6943   -46978.035   0.36172214 
   48900    274.81616    12.348896    125212.84   -43657.983    3354.5207   -47012.504   0.33437598 
   49000    269.71604   -10.763511    125230.13   -43707.341    3292.2665   -46999.608    0.3455806 
   49100    273.43694   -14.596313    125233.15   -43646.044    3337.6853   -46983.729   0.35749066 
   49200    271.07842    2.9113997    125257.39   -43651.035    3308.8963   -46959.932   0.33881576 
   49300    267.91924    -31.36358    125226.66   -43702.723     3270.334   -46973.057   0.34591105 
   49400    264.36846   -9.2668122    125213.11    -43745.73    3226.9917   -46972.722   0.35418673 
   49500    267.46938    10.713607    125238.69   -43677.821    3264.8428   -46942.664   0.34042628 
   49600    271.17821   -16.564289    125220.87   -43697.908    3310.1144   -47008.023   0.34376065 
   49700    274.89305   -1.0010973    125211.04   -43714.184    3355.4592   -47069.643   0.35474218 
   49800    273.43781   -32.743113    125202.53   -43697.268     3337.696   -47034.964   0.33793718 
   49900    275.17774    4.8107853    125204.51   -43657.744    3358.9343   -47016.678   0.34590435 
   50000    271.36593     7.319373    125215.53   -43665.796    3312.4057   -46978.202   0.36110885 
   50100    279.60957    12.271846    125261.91   -43552.617     3413.031   -46965.648   0.34086831 
   50200     275.3236   -50.802547    125264.46   -43627.638    3360.7147   -46988.353   0.34809391 
   50300    274.09777   -22.849522    125245.92   -43637.729    3345.7517   -46983.481   0.36035312 
   50400    274.88781   -1.6218146    125226.21    -43659.26    3355.3952   -47014.656    0.3323092 
   50500    277.73783   -22.768589    125220.07   -43604.937    3390.1838   -46995.121   0.34232547 
   50600     279.5387    34.274263    125237.19   -43497.698     3412.166   -46909.864   0.36008567 
   50700    271.02966   -25.314165    125240.54   -43723.065     3308.301   -47031.366   0.32721598 
   50800    272.59027   -24.476196    125213.76    -43735.69    3327.3505    -47063.04   0.34496963 
   50900    273.78469    19.031154    125185.31   -43739.003    3341.9301   -47080.934    0.3535501 
   51000    267.89033     12.83572    125193.13   -43704.349    3269.9811    -46974.33   0.33737194 
   51100    267.99943    38.561628     125176.8   -43698.234    3271.3128   -46969.546   0.35031687 
   51200    274.12904   -2.9404387    125190.78   -43753.706    3346.1335    -47099.84   0.35775965 
   51300    267.51689    2.9363382    125166.34   -43763.008    3265.4227    -47028.43   0.33835944 
   51400    272.42732    9.6349683    125180.98   -43707.219    3325.3615   -47032.581   0.34264319 
   51500    271.85332    23.690069       125166   -43730.458    3318.3551   -47048.814   0.35638077 
   51600    271.70246       27.663    125194.67   -43681.042    3316.5136   -46997.555   0.33519418 
   51700    277.51434    12.836694    125206.17   -43626.469    3387.4558   -47013.925   0.35010524 
   51800    276.83529    9.5243182    125227.13   -43618.928     3379.167   -46998.095   0.35577664 
   51900    275.99267   0.36240835    125236.46   -43681.074    3368.8816   -47049.955   0.33441668 
   52000    267.71357   -7.1999714    125221.73   -43676.968    3267.8235   -46944.791   0.35120574 
   52100    270.64728     5.812237     125209.7   -43753.687    3303.6336   -47057.321   0.35420007 
   52200    267.17412    15.895997    125162.56   -43773.884    3261.2387   -47035.123    0.3357081 
   52300    269.16368    21.469882    125197.17    -43775.83    3285.5242   -47061.355   0.34831743 
   52400    266.88715    -17.18249    125164.96   -43849.612    3257.7359   -47107.348   0.35339898 
   52500    273.86525   -10.634681    125166.32   -43738.966    3342.9135    -47081.88   0.33465552 
   52600     272.6074    24.619259     125193.9   -43661.921    3327.5596   -46989.481   0.35755365 
   52700    270.59138   -10.886502    125181.49   -43676.746    3302.9513   -46979.697   0.36116205 
   52800    277.34741    27.777121     125230.7   -43572.758    3385.4182   -46958.176   0.34402903 
   52900    268.99832     14.05153    125230.02   -43620.866    3283.5057   -46904.372   0.35984581 
   53000    272.96379   -11.561489    125222.46   -43589.819    3331.9099   -46921.728   0.36228955 
   53100    271.82561   -12.416091    125199.77   -43699.707    3318.0168   -47017.724   0.33827161 
   53200    270.38917   -13.603618    125166.71    -43743.82     3300.483   -47044.303   0.35354974 
   53300    272.37428    26.458869    125180.98   -43739.253    3324.7141   -47063.967   0.35433836 
   53400    274.49194    14.827231    125215.56   -43665.561    3350.5631   -47016.124   0.33699217 
   53500    277.35507    23.321039    125225.92   -43630.847    3385.5117   -47016.358   0.35308402 
   53600    266.96695   -23.851983     125206.7   -43707.507      3258.71   -46966.217   0.35377832 
   53700     270.5864    6.3509675    125224.51   -43665.502    3302.8905   -46968.392   0.33998873 
   53800    273.67504   -1.3224945    125201.47   -43703.667    3340.5917   -47044.259   0.35797433 
   53900    271.27429     20.29009    125211.64   -43711.258    3311.2871   -47022.545   0.34991967 
   54000    266.00941   -23.440636    125189.27   -43738.918    3247.0218    -46985.94   0.33648461 
   54100    271.18033   -17.196212     125201.6   -43687.728    3310.1402   -46997.868   0.35774165 
   54200    274.99697    25.704735    125204.72   -43642.475    3356.7278   -46999.203   0.35039444 
   54300    274.40631     40.66888    125217.77   -43574.821    3349.5179   -46924.339   0.33274894 
   54400    276.92153    20.033606     125229.1   -43541.059    3380.2197   -46921.279   0.36645878 
   54500    278.70651    24.551352    125210.44    -43592.95    3402.0079   -46994.958   0.34784867 
   54600    277.56977   -19.932516    125217.24   -43580.369    3388.1324   -46968.501   0.34137063 
   54700    274.85608    3.0503229    125207.45   -43608.011    3355.0079   -46963.019   0.36454301 
   54800    277.80464    12.208118    125231.43   -43590.939    3390.9994   -46981.938   0.35017709 
   54900     271.4481    -10.48574     125228.5   -43595.445    3313.4087   -46908.854    0.3375924 
   55000    277.72659    1.6870843     125235.3   -43614.403    3390.0467    -47004.45   0.36353506 
   55100    279.78009    15.742074     125238.6   -43617.734    3415.1125   -47032.846   0.34926491 
   55200    268.86082   -1.0279049    125189.04   -43747.134    3281.8273   -47028.962   0.33063589 
   55300    270.88652    7.8706639    125169.78   -43794.714    3306.5539   -47101.268   0.36517917 
   55400    275.75476   -10.110343    125152.55   -43738.941    3365.9777   -47104.919   0.34969142 
   55500    270.89401   -1.5873345    125174.68   -43737.658    3306.6452   -47044.303   0.33210353 
   55600    275.66423   -8.1147088    125196.39   -43629.521    3364.8726   -46994.393   0.37320944 
   55700    276.49349    24.100109     125229.6    -43582.83    3374.9949   -46957.825   0.34969613 
   55800    277.94299    16.071087    125250.96   -43572.233    3392.6881   -46964.921   0.33559484 
   55900    273.65819    7.8277431    125251.25    -43600.38     3340.386   -46940.766   0.37117807 
   56000    271.88999   -17.991897    125247.09   -43601.637    3318.8026   -46920.439   0.35245357 
   56100    278.45746    15.587661    125248.56    -43588.47     3398.968   -46987.438   0.33075115 
   56200    278.83176    20.380051    125240.41   -43608.579    3403.5367   -47012.115   0.36949625 
   56300    269.86633   -18.189924    125201.23   -43687.052     3294.101   -46981.153   0.34350649 
   56400    271.50302    3.5434882    125170.36   -43723.364    3314.0791   -47037.443   0.33172708 
   56500    264.54202   -10.462326    125139.58   -43771.608    3229.1102   -47000.718   0.37371307 
   56600    261.66219   -27.541453    125147.95   -43816.629    3193.9579   -47010.587   0.35208301 
   56700    273.98334    23.579312    125157.43   -43768.364    3344.3549   -47112.719   0.33231207 
   56800    272.08039    14.624405    125188.75   -43672.536    3321.1268   -46993.663   0.37695899 
   56900    269.10842   -32.388135    125188.75   -43778.516    3284.8497   -47063.366   0.34978956 
   57000    268.09379  -0.36161774    125148.66   -43792.558    3272.4647   -47065.023   0.33358302 
   57100    275.74877    55.733762    125181.14   -43681.153    3365.9045   -47047.057   0.37307179 
   57200    268.41608   -1.4656374    125195.86   -43650.835    3276.3986   -46927.233   0.34965682 
   57300     266.8504   -3.0540691    125197.85   -43769.256    3257.2873   -47026.544   0.33310883 
   57400    271.41181   -2.6848464    125188.33   -43686.409    3312.9657   -46999.375   0.37745529 
   57500    271.33993  -0.51561079    125223.96   -43680.346    3312.0884   -46992.435   0.34008782 
   57600    271.20899   -29.134971    125200.68    -43752.77    3310.4901    -47063.26   0.33989417 
   57700    273.04917    23.470795    125193.04   -43703.435    3332.9521   -47036.387   0.37273762 
   57800    276.18854   -21.352496    125227.56   -43631.162    3371.2725   -47002.434    0.3401732 
   57900    274.12467    48.175746    125218.27   -43692.286    3346.0801   -47038.366   0.33794395 
   58000    272.81429   -10.449276    125229.34   -43627.642    3330.0851   -46957.727   0.37595213 
   58100    266.32617   -31.198148    125218.61   -43689.113    3250.8883   -46940.002   0.34027272 
   58200    280.32712    8.6037518    125234.33   -43544.857    3421.7898   -46966.647   0.34578771 
   58300    280.33889   -9.5007503     125228.6   -43615.166    3421.9335   -47037.099   0.37240286 
   58400    277.43793    3.4668896    125196.48   -43652.062     3386.523   -47038.585   0.33862293 
   58500    271.30164   -1.6455845    125199.73   -43670.026     3311.621   -46981.647   0.34357988 
   58600     271.6173    40.754426    125210.75   -43714.283    3315.4741   -47029.757   0.37232627 
   58700    269.22791    14.346879    125193.81   -43669.614    3286.3082   -46955.922   0.34721138 
   58800    268.99619   -19.510066    125236.51   -43682.722    3283.4797   -46966.202   0.33855637 
   58900    270.49231   -16.241275    125238.43   -43633.289     3301.742   -46935.031   0.38020237 
   59000    276.91332   -3.1333704    125258.36   -43553.077    3380.1195   -46933.196   0.34358193 
   59100    279.62216    27.867621    125290.51   -43569.023    3413.1847   -46982.208   0.34079118 
   59200      271.713    -50.29717    125289.65   -43645.947    3316.6422    -46962.59   0.37894672 
   59300    275.01799    -1.140085    125240.25   -43660.939    3356.9843   -47017.924   0.33566906 
   59400    273.71467      -10.619    125229.36   -43641.151    3341.0754   -46982.226   0.34802239 
   59500    267.38447   -31.292496    125203.61   -43732.076    3263.8064   -46995.883   0.37281506 
   59600    272.30088    26.638253    125193.94   -43673.643    3323.8181   -46997.461   0.33846267 
   59700    270.68877    29.744352    125223.78   -43630.065      3304.14   -46934.205   0.35373029 
   59800    271.76266   -27.534448    125195.66   -43757.962    3317.2484    -47075.21   0.36744798 
   59900    269.00754     25.67032    125196.72   -43757.541    3283.6182   -47041.159   0.33881178 
   60000    274.25423    21.840756       125203   -43706.441    3347.6615   -47054.102   0.34971023 
   60100    270.38058   -20.095878    125188.07   -43698.734    3300.3781   -46999.112   0.36932318 
   60200    270.28753    11.881738     125186.8   -43660.058    3299.2423     -46959.3   0.34110066 
   60300    273.11726    1.5612736    125206.62   -43604.781    3333.7832   -46938.564   0.35583902 
   60400     278.7858    11.340003    125216.28   -43566.393    3402.9757   -46969.369   0.36564172 
   60500    278.39423    38.978185    125240.69    -43555.86    3398.1961   -46954.056   0.34380326 
   60600    273.53216     8.039554    125232.64   -43643.245    3338.8476   -46982.092    0.3570576 
   60700    277.12035   -4.7682742    125272.14    -43518.59    3382.6466   -46901.236   0.36395226 
   60800    273.05932   -20.385471    125288.15   -43516.924     3333.076       -46850   0.34230725 
   60900    280.35903   -12.745023    125289.48   -43566.591    3422.1793    -46988.77   0.34945919 
   61000    274.83275   -10.748676    125263.96   -43651.701    3354.7232   -47006.424   0.35780109 
   61100    277.37693   -2.1342257    125235.64   -43596.494    3385.7785   -46982.272   0.33464275 
   61200    273.35626    31.568694    125229.59   -43610.551    3336.7005   -46947.251   0.36556751 
   61300     275.4055   -38.774883    125245.58   -43635.299    3361.7144   -46997.013   0.35393157 
   61400    269.67916   -1.7206831    125240.98   -43653.606    3291.8163   -46945.422   0.33560655 
   61500    277.02625   -7.8714186    125228.47   -43646.672    3381.4979    -47028.17   0.36882479 
   61600    273.61419   -33.704621    125210.89   -43700.253     3339.849   -47040.102   0.35087361 
   61700    272.93524     22.04039    125202.27   -43707.938    3331.5614   -47039.499   0.33722841 
   61800    268.62499    7.6339742    125196.53   -43705.703    3278.9486   -46984.651   0.36459707 
   61900    273.68636    22.059109    125223.26    -43626.58    3340.7299    -46967.31   0.35143117 
   62000    274.21892   -9.2804384    125246.53   -43649.872    3347.2306   -46997.103   0.33716445 
   62100    268.70213    9.2904234    125215.38   -43667.804    3279.8902   -46947.694   0.36724023 
   62200    272.79559   -4.1869392    125246.27   -43589.184    3329.8568   -46919.041   0.35245495 
   62300     267.0064   -37.021592    125238.54   -43686.043    3259.1915   -46945.234   0.34380169 
   62400    272.68235    -11.73052    125240.34   -43685.147    3328.4745   -47013.622   0.36716581 
   62500     270.3156   -15.785909    125221.72   -43686.703     3299.585   -46986.288   0.35962483 
   62600    271.82117     15.84508    125242.92   -43709.392    3317.9626   -47027.355   0.33114583 
   62700    268.90924   -41.950025    125212.29   -43707.378    3282.4184   -46989.796   0.37105383 
   62800    269.58856    32.119791    125189.87   -43705.822    3290.7104   -46996.532    0.3554804 
   62900     272.6635    20.060266    125219.12   -43654.566    3328.2445   -46982.811   0.33502363 
   63000    271.32049    6.0026997    125235.46   -43698.084    3311.8511   -47009.935   0.38025342 
   63100     264.3317   -45.835028    125218.47   -43752.172     3226.543   -46978.715   0.34332437 
   63200    274.71926   -0.7270253    125207.08    -43629.15    3353.3379   -46982.488   0.34504914 
   63300     274.2063   -19.489247    125207.14   -43715.057    3347.0765   -47062.134   0.38026668 
   63400    269.10934    4.9705594    125215.64   -43778.641    3284.8608   -47063.502   0.33367217 
   63500    267.34994   -1.2878642     125215.2   -43733.058    3263.3849   -46996.443   0.34545864 
   63600    270.22679   -19.374453    125223.66   -43803.862     3298.501   -47102.363   0.36861779 
   63700    266.88709   -23.576197    125190.41   -43812.495    3257.7352    -47070.23   0.33532896 
   63800    268.83753    2.7326425    125177.94   -43836.972    3281.5431   -47118.516   0.33577308 
   63900    270.71229    20.829934    125187.86   -43741.852    3304.4271   -47046.279   0.37607817 
   64000    271.52681   -8.4114979    125230.36   -43673.365    3314.3695   -46987.734   0.33323821 
   64100     274.3656    22.162224     125213.6   -43638.733     3349.021   -46987.754   0.33881627 
   64200    274.33156    9.2011324     125259.8   -43610.741    3348.6054   -46959.347   0.37674407 
   64300    277.43837   -11.991029    125227.82   -43611.138    3386.5285   -46997.666   0.33670263 
   64400     272.8955    14.469702    125229.38   -43694.594    3331.0763    -47025.67   0.33832716 
   64500    267.48591   -7.8223942    125193.58   -43680.399    3265.0446   -46945.443   0.38249256 
   64600    272.46746    34.567118    125181.55   -43735.481    3325.8515   -47061.332   0.33577047 
   64700    269.89376    14.185736    125191.61   -43758.912    3294.4359   -47053.348   0.33989508 
   64800    269.50661    -39.16013    125188.78   -43695.359    3289.7101   -46985.069   0.38809518 
   64900    273.31372    31.815867    125217.57   -43628.365    3336.1812   -46964.547   0.32790398 
   65000    276.64623    -23.44172    125256.94   -43608.498    3376.8593   -46985.357   0.33983765 
   65100    271.17096   -14.912507    125232.55   -43654.792    3310.0259   -46964.818   0.37693657 
   65200    266.43983   -32.215556    125236.88   -43678.676    3252.2757   -46930.951   0.33341991 
   65300    275.01943   -15.837356     125222.7   -43589.357    3357.0019   -46946.359   0.35458183 
   65400    272.79963    8.5706216    125216.63   -43640.007    3329.9061   -46969.913   0.37267046 
   65500    276.02911    45.292541    125231.63   -43578.686    3369.3265   -46948.013   0.33730822 
   65600    274.88083    33.105569    125256.77   -43569.897    3355.3101   -46925.207   0.34698076 
   65700    277.92256    26.234905    125292.89   -43575.633    3392.4387   -46968.072   0.36739876 
   65800    272.20454    14.257702    125267.54   -43620.372    3322.6422   -46943.015   0.33327148 
   65900    275.68592    16.829293    125267.12   -43636.814    3365.1374   -47001.951   0.34314144 
   66000    273.67793   -20.358891    125262.77   -43634.228     3340.627   -46974.855   0.37569899 
   66100     272.7843   -25.036271    125257.83   -43666.708     3329.719   -46996.427   0.33343152 
   66200    269.14758   -17.052644    125239.62   -43732.689    3285.3277   -47018.017   0.34486335 
   66300    268.27453   -56.684393    125213.13    -43722.47    3274.6708   -46997.141   0.37237736 
   66400    271.82278   -18.093118    125216.07   -43700.117    3317.9822   -47018.099   0.33285159 
   66500    272.48712  -0.89076759    125223.14   -43675.929    3326.0914    -47002.02   0.35043576 
   66600    268.27873    10.498857    125210.12   -43715.213    3274.7221   -46989.935    0.3697511 
   66700    272.15799    1.5511501    125195.23   -43709.026    3322.0739     -47031.1   0.32826224 
   66800    270.32677     19.91201    125188.34   -43747.959    3299.7213   -47047.681   0.35521057 
   66900     270.8375  -0.70760454    125199.72   -43722.507    3305.9555   -47028.463   0.36670707 
   67000    263.21073   -21.180175    125171.16   -43825.597      3212.86   -47038.457   0.32733801 
   67100    273.76586    29.964814    125191.44   -43661.936    3341.7003   -47003.637   0.36108746 
   67200    270.52672    12.940722    125201.37   -43713.743     3302.162   -47015.905   0.36022049 
   67300    273.13807   0.55258036    125186.69   -43716.081    3334.0372   -47050.118   0.33745607 
   67400     276.3285   -3.5325753    125208.18   -43669.491    3372.9809   -47042.472   0.35581673 
   67500    277.61762   -28.348255    125221.52    -43657.89    3388.7165   -47046.607   0.35662226 
   67600    276.58645    20.153158    125242.12   -43544.694    3376.1296   -46920.823   0.33363696 
   67700    275.32932   -14.802593    125250.98   -43591.851    3360.7845   -46952.636   0.35586135 
   67800    273.88465  -0.12452493    125241.91    -43632.24    3343.1503   -46975.391   0.36237909 
   67900    271.25472  -0.26267887    125225.49   -43647.223    3311.0482   -46958.272   0.33316418 
   68000    271.92066    6.7048396    125202.99    -43691.14     3319.177   -47010.317   0.36343012 
   68100    269.76587   -18.439504    125197.23   -43698.005    3292.8748   -46990.879   0.35967498 
   68200    266.31863   -25.537855    125206.29   -43710.603    3250.7963   -46961.399   0.33908973 
   68300    269.65806      6.34316    125208.38   -43638.458    3291.5588   -46930.017   0.36732072 
   68400      279.411    5.1212027    125218.97   -43565.791    3410.6073   -46976.399   0.36109646 
   68500    273.12271   -14.898852    125235.91   -43598.492    3333.8497   -46932.341   0.33488381 
   68600    274.90204   -16.111733    125233.22    -43624.61     3355.569   -46980.179   0.36510208 
   68700    276.16066    22.176785    125227.68   -43657.592    3370.9322   -47028.524   0.35344581 
   68800    274.41082    10.829831     125222.9   -43650.727     3349.573     -47000.3    0.3355535 
   68900    269.80894    14.179123    125215.22    -43645.33    3293.4005   -46938.731   0.36729988 
   69000    274.10808   -4.2803629     125242.6   -43638.527    3345.8776   -46984.405     0.346397 
   69100    271.18551   -8.6980954    125225.58   -43746.025    3310.2034   -47056.228   0.33439123 
   69200    270.30503    5.4467254    125222.76   -43721.157     3299.456   -47020.613   0.36224511 
   69300    268.89275   -22.132083    125212.86   -43733.668    3282.2171   -47015.885    0.3491224 
   69400    266.89891   -11.576183    125183.13   -43790.872    3257.8794   -47048.752   0.34745408 
   69500    272.53774  -0.61926231    125187.91    -43731.38    3326.7093   -47058.089   0.36107669 
   69600    276.38809    20.316226    125245.57   -43553.063    3373.7083   -46926.771   0.35591911 
   69700     271.1495   -52.544594    125217.53   -43625.293     3309.764   -46935.057   0.34805375 
   69800    270.42645   -48.534679    125212.32    -43674.66    3300.9381   -46975.598   0.36801118 
   69900    267.60542   -35.536655    125205.65   -43737.796    3266.5034     -47004.3   0.35278641 
   70000    273.35099   -21.177935    125202.77   -43660.832    3336.6362   -46997.468   0.34572039 
   70100    269.98211   -4.8162407    125199.69   -43759.358    3295.5142   -47054.872   0.36065034 
   70200    271.01906   -20.994039    125218.02   -43648.153    3308.1717   -46956.325   0.35003139 
   70300    273.49646   -2.4525376    125219.13   -43691.112    3338.4118   -47029.524   0.34170765 
   70400    275.30312    30.337039    125239.41   -43569.373    3360.4648   -46929.837   0.36959716 
   70500    274.05117   -27.860587    125238.69   -43666.421    3345.1829   -47011.604   0.34508204 
   70600     268.8506   -4.8786418    125230.07   -43665.265    3281.7026   -46946.968   0.34465195 
   70700    269.31484   -17.172898    125220.83   -43674.506    3287.3693   -46961.875   0.36672879 
   70800    272.45158    24.528062    125235.48   -43697.177    3325.6577   -47022.835   0.33956699 
   70900    268.41736   -13.995969       125221   -43723.523    3276.4143   -46999.937   0.34887885 
   71000    267.30136   -11.556883    125235.22   -43694.898    3262.7919    -46957.69   0.36973399 
   71100    270.77981   -19.540092     125221.5   -43752.157    3305.2513   -47057.409   0.34125961 
   71200    271.95227   -28.889811    125250.65   -43685.698    3319.5629   -47005.261   0.35056584 
   71300    266.86077   -23.512776    125223.65   -43782.928    3257.4139   -47040.342    0.3598983 
   71400    266.38197  -0.63371059    125220.32   -43725.018    3251.5695   -46976.588   0.34811215 
   71500     268.3223   -1.7059968     125233.8   -43680.712    3275.2539   -46955.966   0.35153068 
   71600    269.57049   -2.9339957    125239.19   -43668.849    3290.4898   -46959.338    0.3622211 
   71700    268.98913   -46.077563    125222.64   -43694.402    3283.3935   -46977.796   0.34225129 
   71800    264.92768   -21.217276    125196.57   -43781.693    3233.8178   -47015.511   0.35077847 
   71900    266.80525   -37.689326    125165.92   -43795.739    3256.7362   -47052.475   0.36534963 
   72000    271.83144      16.9855    125182.69   -43782.272     3318.088    -47100.36   0.33629949 
   72100    274.73019    20.518756    125263.88   -43654.855    3353.4713   -47008.326   0.34327395 
   72200    275.69729    42.230009    125288.66   -43536.342    3365.2761   -46901.618   0.35572005 
   72300    278.50796   -1.4810699    125331.11   -43464.997    3399.5843   -46864.581   0.33924654 
   72400    276.72675    -20.08809    125312.62   -43616.595    3377.8421   -46994.437   0.34701016 
   72500    274.76951   -36.687589    125272.63   -43626.797    3353.9512   -46980.749    0.3610698 
   72600    276.89846    13.347307    125243.18   -43561.912    3379.9381    -46941.85    0.3331548 
   72700    269.43581    4.5570692    125224.06   -43660.569    3288.8459   -46949.415   0.35298959 
   72800    274.05131    5.1013645    125211.47   -43645.102    3345.1846   -46990.286   0.36295056 
   72900    276.16607    21.594667     125223.4   -43637.058    3370.9982   -47008.056   0.33180982 
   73000    275.66959    12.129199    125221.09   -43670.755     3364.938   -47035.693   0.35375838 
   73100    273.17887    24.034108    125221.37   -43649.456    3334.5352   -46983.991    0.3547344 
   73200    278.33271   -8.6443896    125272.64    -43570.13    3397.4452   -46967.575   0.33995973 
   73300    278.68803   0.18109346    125251.63   -43524.733    3401.7824   -46926.516   0.35749383 
   73400    278.20935   -24.362629    125272.25    -43539.23    3395.9394   -46935.169   0.35809832 
   73500    283.15513    35.278529    125273.16   -43514.894    3456.3096   -46971.203   0.33764621 
   73600    280.20498    37.372625    125255.83   -43551.421    3420.2988   -46971.719    0.3533411 
   73700    275.13591    4.5778955    125237.17    -43657.27    3358.4237   -47015.694   0.35406619 
   73800    268.48841    3.9692395    125188.85   -43732.584    3277.2815   -47009.865   0.34093452 
   73900    274.44895    82.240531    125176.41   -43690.309    3350.0384   -47040.347    0.3506229 
   74000    267.99661     1.501195    125166.59   -43673.852    3271.2785   -46945.131   0.36902875 
   74100    277.44065    3.5180293    125244.67   -43532.465    3386.5564   -46919.021   0.34456898 
   74200    272.26257   -41.135323    125265.05   -43631.351    3323.3505   -46954.701   0.35506765 
   74300    270.00563   -2.1148902    125221.79    -43682.93    3295.8014   -46978.732   0.36321883 
   74400    276.49713    9.3707056     125189.2   -43653.583    3375.0393   -47028.622   0.34403493 
   74500    275.78531   -3.2224241    125169.54   -43716.743    3366.3505   -47083.093   0.35807168 
   74600    275.49436    27.673316       125198   -43668.703    3362.7991   -47031.502   0.35602997 
   74700    275.02602   -28.117164    125220.59   -43614.578    3357.0823    -46971.66   0.34838206 
   74800     270.2427   -8.1261411    125191.66   -43678.809    3298.6951   -46977.504   0.36382498 
   74900    275.69274    14.805063    125199.32    -43643.69    3365.2206   -47008.911   0.35805898 
   75000    270.57547    28.787212    125186.56   -43693.083     3302.757    -46995.84   0.34430026 
   75100    276.15859    60.171919    125227.61   -43602.235     3370.907   -46973.142   0.35153816 
   75200    275.16131    5.9972968    125244.65   -43609.547    3358.7338    -46968.28   0.35865517 
   75300    271.58085   -22.755115    125230.12    -43673.75    3315.0291   -46988.779   0.34723765 
   75400    276.77982    21.111676    125211.98   -43695.601      3378.49   -47074.091   0.34896906 
   75500    272.14291    1.9327026    125189.32   -43711.476    3321.8899   -47033.366   0.35954768 
   75600    275.02684    39.975867    125190.73   -43638.256    3357.0923   -46995.348   0.35221047 
   75700    275.96994    44.087387     125222.1   -43564.882    3368.6042   -46933.486   0.35865666 
   75800    276.41439    16.169297    125245.93     -43559.7    3374.0293    -46933.73   0.35652984 
   75900    280.32515    44.299631    125226.56   -43610.599    3421.7657   -47032.364   0.34288253 
   76000    271.94504   -16.186924    125225.26    -43602.41    3319.4746   -46921.885   0.36175365 
   76100    270.31287   -33.625234    125186.04   -43687.521    3299.5517   -46987.073   0.36736335 
   76200    270.91027   -19.956134    125164.02   -43738.767    3306.8437    -47045.61   0.34661464 
   76300    274.69917    37.227925    125166.81   -43697.671    3353.0927   -47050.764   0.35715734 
   76400    269.41036   -11.244174    125171.06   -43711.014    3288.5353   -46999.549   0.36241708 
   76500    270.23282   -4.0687338    125187.39   -43671.908    3298.5745   -46970.482   0.34659696 
   76600    271.46421    2.3211822    125173.67   -43652.034    3313.6054   -46965.639   0.35988964 
   76700    274.24631    34.824559    125224.85    -43624.45    3347.5649   -46972.015   0.35420649 
[...]
   81900    269.92043    5.5809277    125172.31   -43720.534    3294.7614   -47015.295   0.34519939 
   82000    276.06829    25.986531     125183.8   -43656.921    3369.8047   -47026.726   0.34887474 
   82100     271.8774   -18.421366    125234.09   -43611.743    3318.6489   -46930.392   0.35698887 
   82200    278.80192    17.684841    125259.23    -43572.18    3403.1725   -46975.353   0.34833482 
   82300    273.97697   -1.7387832    125258.51   -43669.827    3344.2772   -47014.105   0.34436453 
   82400    275.35307   -8.7371492    125239.93   -43588.953    3361.0745   -46950.027   0.35151774 
   82500    275.23841     36.52839    125269.83   -43484.307    3359.6749   -46843.982   0.34572476 
   82600    278.16281    1.7980679    125273.87   -43532.821    3395.3713   -46928.193   0.35087226 
   82700    268.44333    -15.79264    125235.18   -43647.182    3276.7312   -46923.913   0.35876864 
   82800    272.40815   -1.4182905    125222.91    -43647.11    3325.1275   -46972.238   0.33913669 
   82900    280.25538    25.076499    125234.21   -43618.095    3420.9141   -47039.009   0.35385047 
   83000    280.85278    3.2863397    125272.95   -43581.504    3428.2062   -47009.711   0.34824792 
   83100    274.61261    7.9451947     125281.8   -43562.103    3352.0361   -46914.139   0.33966215 
   83200    275.21521   -10.094781    125245.66   -43612.792    3359.3916   -46972.184   0.35566081 
   83300     271.3341    9.4869551    125239.34   -43635.371    3312.0172   -46947.389   0.35435628 
   83400    270.13239   -33.690805    125232.79   -43641.926    3297.3486   -46939.275   0.34866835 
   83500    264.93692   -34.326591    125184.67   -43758.791    3233.9306   -46992.721   0.35510263 
   83600    268.79413   -21.344214    125183.81   -43736.065    3281.0133   -47017.078   0.35669625 
   83700    267.12184   -33.295147    125193.61   -43737.978    3260.6007   -46998.579   0.34185481 
   83800    270.55309    12.387954    125185.86    -43721.32    3302.4839   -47023.804   0.35445093 
   83900    270.51941   -13.663329    125192.14   -43700.963    3302.0728   -47003.035   0.35937497 
   84000    272.97451    6.1986958    125174.66   -43703.915    3332.0407   -47035.956   0.34233937 
   84100    271.92965    4.5434913    125169.05   -43667.441    3319.2867   -46986.728   0.35556603 
   84200    273.62593    21.856412    125181.65   -43640.471    3339.9923   -46980.463   0.35810182 
   84300    269.24501   -48.572309    125174.59   -43697.154    3286.5169   -46983.671   0.34235032 
   84400    273.61744   -8.8434079    125176.42   -43686.786    3339.8887   -47026.674   0.36187584 
   84500    269.53236   -3.1707602    125174.36   -43702.175    3290.0244     -46992.2   0.35923413 
   84600    274.45713   -26.034778    125192.25   -43633.327    3350.1382   -46983.465   0.34225219 
   84700    271.86182   -18.304748    125189.97   -43653.755    3318.4588   -46972.213    0.3624704 
   84800    273.78076   0.18981659     125195.9   -43649.718    3341.8822     -46991.6    0.3523032 
   84900    278.10602   -3.1964221    125209.21   -43579.249    3394.6781   -46973.927   0.34364873 
   85000    274.35039   -5.3279861    125165.27   -43641.499    3348.8353   -46990.334   0.36206252 
   85100    269.21817   -38.708259    125164.86   -43671.488    3286.1893   -46957.677   0.35688049 
   85200    274.50789    35.078762    125176.11   -43650.359    3350.7579   -47001.117   0.34519757 
   85300    270.08442   -14.691433    125185.68   -43657.773    3296.7631   -46954.536   0.36144912 
   85400     269.4839    10.610553    125173.31   -43712.696    3289.4329   -47002.129   0.35905191 
   85500    274.20263    20.201255    125169.12   -43674.124    3347.0317   -47021.155   0.34018627 
   85600    269.98298    18.695113    125172.06   -43699.184    3295.5249   -46994.709   0.35837957 
   85700    269.69608   -22.843675    125175.15   -43694.459    3292.0229   -46986.482   0.36358246 
   85800    270.16261   -1.5375332    125159.03   -43654.216    3297.7176   -46951.934    0.3489373 
   85900    272.97855     46.93371    125193.33   -43613.538    3332.0901   -46945.628   0.35867112 
   86000    267.46766    23.626255    125160.49    -43660.58    3264.8218   -46925.402   0.36437923 
   86100    273.92717    5.6734592    125169.54    -43627.03    3343.6694   -46970.699   0.35134629 
   86200    273.52858   -28.644219    125183.81   -43639.015    3338.8039   -46977.819   0.35760505 
   86300    270.79903   -43.337978     125187.1   -43661.091    3305.4859   -46966.577   0.36219978 
   86400    264.53473   -6.0772953    125163.14   -43697.828    3229.0212   -46926.849   0.35194773 
   86500     268.2294   -2.8711717    125136.16   -43737.745      3274.12   -47011.865   0.36031981 
   86600    274.82478    36.291911    125165.36   -43621.753    3354.6259   -46976.378   0.35634898 
   86700    273.55436    17.749555    125180.54   -43635.818    3339.1186   -46974.937   0.35341728 
   86800    271.33196    -11.56737    125179.22   -43697.965    3311.9911   -47009.956   0.35623847 
   86900    273.49229    18.030042    125193.46   -43659.727    3338.3609   -46998.088   0.34588327 
   87000      273.757  -0.60453182    125188.22   -43626.109    3341.5921   -46967.701   0.35938009 
   87100    272.86143    -17.09016    125170.13   -43661.564    3330.6605   -46992.225   0.36177198 
   87200     271.1625     29.83576    125186.95   -43624.994    3309.9226   -46934.917   0.35347766 
   87300    273.79904   -2.8758223    125191.71   -43595.267    3342.1053   -46937.372   0.35200716 
   87400    269.08081   -55.344119    125166.78   -43641.094    3284.5127   -46925.607    0.3715824 
   87500    275.75208    15.675112    125156.41    -43606.75     3365.945   -46972.695   0.35703774 
   87600    268.43908   -50.564177    125184.84   -43638.206    3276.6794   -46914.885   0.35484902 
   87700    275.91191    12.652584    125178.52   -43627.576    3367.8959   -46995.471   0.36650254 
   87800     274.7577   -12.024901     125175.5    -43657.63    3353.8071   -47011.437   0.35002213 
   87900    270.85903   -43.714147    125159.33   -43711.647    3306.2183   -47017.865   0.35314403 
   88000    271.09499    9.4699857    125183.24   -43674.636    3309.0985   -46983.734   0.36213429 
   88100    276.66757    11.162225    125167.74   -43639.241    3377.1198   -47016.361   0.34957778 
   88200    266.49588   -24.727308    125155.98   -43725.632    3252.9599   -46978.592   0.35728963 
   88300    271.22851   -2.4510831    125142.02   -43698.174    3310.7283   -47008.902   0.36375935 
   88400     274.6359    30.797801    125156.87   -43638.864    3352.3203   -46991.184   0.35117772 
   88500    271.75366    11.721751    125163.98   -43684.592    3317.1385   -47001.731   0.35407406 
   88600    270.46465   -14.306324    125136.71   -43663.346    3301.4044    -46964.75   0.36968965 
   88700    277.81494    15.389593    125160.31   -43644.363     3391.125   -47035.488   0.34678247 
   88800    268.37642    28.909672    125155.22   -43677.417    3275.9145   -46953.332   0.36091575 
   88900    266.22265   -42.814213    125136.62   -43679.773    3249.6247   -46929.397   0.37450014 
   89000    271.16239    8.4935432     125142.8   -43627.269    3309.9213    -46937.19   0.35366328 
   89100    271.43096   0.82552161    125154.12   -43673.904    3313.1996   -46987.103   0.35993253 
   89200    273.58071    28.083893    125155.54   -43622.418    3339.4402   -46961.858   0.36838465 
   89300    268.07467    12.289321     125150.3   -43731.645    3272.2313   -47003.876   0.34748444 
   89400    277.70776    1.2803241    125171.59    -43626.71    3389.8167   -47016.526   0.36179349 
   89500    265.80503   -3.2214835    125165.99   -43701.919     3244.527   -46946.446   0.37339187 
   89600    268.13945   -15.074939    125135.01   -43786.697     3273.022   -47059.719   0.34711703 
   89700    267.31891    4.3887313    125144.84   -43690.016    3263.0062   -46953.023   0.36695728 
   89800     275.2503   -6.7443445    125193.38   -43644.727      3359.82   -47004.547   0.36530903 
   89900    274.24107    9.5604542    125205.25   -43625.305    3347.5009   -46972.806   0.34390378 
   90000    273.80918    29.508496       125186   -43666.956    3342.2291   -47009.185   0.36413309 
   90100     273.2975   -8.8154847    125176.16   -43614.616    3335.9833   -46950.599   0.36735427 
   90200    270.47912    25.276552    125180.73   -43668.857     3301.581   -46970.438   0.34807266 
   90300    274.77715     29.95986    125156.81   -43686.426    3354.0445    -47040.47   0.36178495 
   90400    277.74758   -12.005291    125169.39   -43654.414    3390.3028   -47044.717   0.36396095 
   90500    271.78385  -0.53861248    125201.16   -43659.062    3317.5071   -46976.569   0.34070634 
   90600    267.90396    34.499341    125181.06   -43625.434    3270.1475   -46895.581   0.36523504 
   90700    271.85378    20.148188    125195.77   -43672.459    3318.3606   -46990.819   0.35901978 
   90800     272.2672    33.914091     125189.3    -43708.66     3323.407   -47032.067    0.3331099 
   90900     273.0365   -1.1302184    125203.09   -43645.624    3332.7974   -46978.421   0.36269455 
   91000    273.31675   -31.390318    125186.39   -43731.696    3336.2183   -47067.915   0.35703119 
   91100    264.60264   -46.047655    125149.86   -43788.601    3229.8502   -47018.451   0.34481303 
   91200    267.21608    12.923655    125143.18    -43786.19    3261.7509   -47047.941    0.3621388 
   91300    269.13916    2.7111435    125168.24   -43734.418    3285.2248   -47019.643   0.35777638 
   91400    272.45771   -35.510118     125207.8   -43681.043    3325.7325   -47006.775   0.34182135 
   91500    280.52884    9.4544921    125239.54   -43535.567     3424.252   -46959.819   0.36274816 
   91600    273.06401   -51.366635    125237.43   -43572.721    3333.1333   -46905.854   0.36301347 
   91700    268.65154   -23.210696    125208.74   -43665.335    3279.2728   -46944.608   0.33698185 
   91800    271.76341   -21.125996    125208.36    -43566.63    3317.2575   -46883.887   0.37530135 
   91900    276.71435    40.724493    125194.98   -43615.472    3377.6908   -46993.163   0.35900086 
   92000    274.70374    27.602491       125197   -43618.214    3353.1485   -46971.363    0.3375282 
   92100    270.62371   -32.503158    125191.54   -43668.369    3303.3459   -46971.715   0.37287743 
   92200    270.80281   -28.349317     125199.8   -43698.012    3305.5321   -47003.544   0.35368347 
   92300    278.07439    43.749255     125222.4   -43580.406     3394.292   -46974.698   0.33789555 
   92400     276.3818    26.984721    125220.38   -43633.715    3373.6316   -47007.346   0.36639027 
   92500    273.86219   -39.228904    125202.84   -43604.506    3342.8761   -46947.382   0.36101336 
   92600    276.61848   -1.1336483    125229.98   -43553.127    3376.5205   -46929.648   0.34222968 
   92700    266.72716   -21.792752    125201.77   -43628.728    3255.7829   -46884.511   0.37389284 
   92800    271.26135    2.8504065    125177.81   -43621.699    3311.1292   -46932.828   0.35702992 
   92900    271.83517    34.073271    125137.84   -43647.827    3318.1335    -46965.96   0.34664083 
   93000    272.40657   -0.2470549    125150.87   -43662.205    3325.1083   -46987.313   0.37045687 
   93100     273.2567     17.42903    125206.24    -43659.71    3335.4853   -46995.196   0.35737825 
   93200    270.06841   -23.818438    125205.58   -43647.414    3296.5676   -46943.982   0.34155375 
   93300    274.39997    24.857765    125202.04   -43705.505    3349.4405   -47054.945   0.36240463 
   93400    267.48855   -14.867283    125185.04   -43752.826    3265.0768   -47017.903   0.36092836 
   93500    267.89461    16.175584    125187.47   -43717.578    3270.0334   -46987.612   0.33869811 
   93600    272.36004     4.428083    125188.21   -43691.406    3324.5403   -47015.946   0.36855962 
   93700    271.63744    21.268738    125218.66    -43677.45    3315.7199   -46993.169   0.35372781 
   93800    271.57657    13.056875    125222.67   -43716.348    3314.9769   -47031.325   0.33879857 
   93900    262.36301   -38.186166    125228.43   -43746.591    3202.5123   -46949.103   0.36618331 
   94000    268.98508    26.343598    125171.53   -43757.429    3283.3441   -47040.773   0.34839939 
   94100    273.93498   -2.0092452     125212.1   -43656.264    3343.7647   -47000.029   0.33908801 
   94200    275.24363   -17.095042    125241.85   -43612.617    3359.7386   -46972.356   0.36239732 
   94300    273.52936   -6.3678136    125235.93    -43637.75    3338.8134   -46976.564   0.34996952 
   94400    270.01092   -9.7965505    125225.34   -43669.907    3295.8659   -46965.773   0.34270984 
   94500     276.0434    10.999719    125224.93   -43580.819    3369.5009    -46950.32   0.36667541 
   94600     271.1737    9.3617514    125225.08   -43691.419    3310.0593   -47001.478   0.34591104 
   94700    274.22095    14.214696    125224.21   -43693.988    3347.2553   -47041.243    0.3356513 
   94800     272.0212    -19.28087    125221.11   -43683.016    3320.4043    -47003.42    0.3690128 
   94900    271.84696   -9.7578196    125221.13   -43734.127    3318.2774   -47052.404    0.3393669 
   95000    268.45457    27.256939    125191.16   -43695.551    3276.8685   -46972.419   0.34300819 
   95100    272.76345   -7.8217663     125234.3   -43692.216    3329.4644   -47021.681   0.36393102 
   95200     274.7882   -22.329576    125234.86   -43666.593    3354.1794   -47020.772   0.34926246 
   95300    272.44159    8.0447395    125222.96   -43684.495    3325.5357   -47010.031   0.34200432 
   95400    270.73685   -23.725827    125238.19   -43650.603     3304.727    -46955.33   0.36393791 
   95500    275.73218    16.805955    125254.25   -43613.651    3365.7021   -46979.353   0.34269939 
   95600    274.21173    13.134146    125224.27   -43665.024    3347.1428   -47012.167   0.33849806 
   95700    272.35626   -14.922296    125204.93   -43638.804    3324.4941   -46963.298   0.37596947 
   95800    272.35434    7.7164772    125213.98   -43646.411    3324.4707   -46970.882   0.34784685 
   95900     273.2426    6.8592636    125195.36   -43653.749    3335.3131   -46989.062   0.34958686 
   96000    278.14929    21.294173    125210.25   -43623.313    3395.2062   -47018.519    0.3639427 
   96100    280.19546    4.2097741    125239.81    -43542.73    3420.1827   -46962.913   0.34082589 
   96200     273.5478   -5.4804132    125232.87   -43580.259    3339.0385   -46919.297   0.35097396 
   96300    271.02387   -15.182395    125206.64   -43602.354    3308.2304   -46910.585   0.37135118 
   96400    268.60683   -23.486059    125185.78    -43638.67     3278.727   -46917.397   0.35455968 
   96500    273.07692    34.424452    125161.68   -43612.312    3333.2908   -46945.602   0.34817239 
   96600    270.01747   -26.685093    125189.29   -43666.358    3295.9459   -46962.304   0.37070435 
   96700     272.2728   -5.2944105    125167.18   -43645.629    3323.4753   -46969.105   0.34934843 
   96800    274.54191    20.565952    125221.29   -43666.379    3351.1731   -47017.552   0.33863696 
   96900    269.74906    6.9594146    125222.47   -43710.417    3292.6696   -47003.087   0.36266101 
   97000    266.90168   -8.4122208    125187.24   -43716.991    3257.9132   -46974.904   0.34583009 
   97100    273.69569   -18.047023    125204.26   -43717.621    3340.8437   -47058.465   0.34339372 
   97200    272.82938   -38.827578    125180.39   -43703.474    3330.2692   -47033.743   0.36635773 
   97300    275.51096    26.074237    125219.56   -43573.773    3363.0017   -46936.775   0.33924349 
   97400    274.99023    5.7457316    125224.48   -43622.642    3356.6454   -46979.287   0.34076277 
   97500      273.342   -12.154269    125216.72   -43591.091    3336.5265   -46927.618   0.37688153 
   97600    277.95898    26.382239    125241.27   -43579.186    3392.8832    -46972.07   0.33947832 
   97700    273.43729    1.6146209    125262.82   -43567.194    3337.6896   -46904.883   0.34828186 
   97800    277.97317    18.314104    125263.05   -43613.986    3393.0565   -47007.043   0.36120142 
   97900    276.34108     22.60803    125241.52   -43605.432    3373.1345   -46978.566   0.33619585 
   98000    270.78234   -15.631896    125212.93   -43649.371    3305.2822   -46954.653   0.35080314 
   98100    270.22154    2.9027822     125209.9   -43645.133    3298.4368   -46943.569   0.36507534 
   98200    273.61196    16.334384    125184.38   -43669.619    3339.8217    -47009.44    0.3389518 
   98300    274.00752    49.120772    125227.77    -43577.83    3344.6501   -46922.481    0.3481721 
   98400    273.26409   -15.852729    125231.07   -43619.795    3335.5755   -46955.371   0.37261107 
   98500    272.80092   -22.216092    125208.41   -43631.962    3329.9218   -46961.883   0.33792636 
   98600    276.34454    19.532164     125200.4   -43629.848    3373.1767   -47003.024   0.34789857 
   98700    275.91685    20.477162    125217.77   -43592.209    3367.9562   -46960.166   0.37014649 
   98800    277.16563    37.545538    125231.21   -43575.632    3383.1993   -46958.831   0.33815672 
   98900    272.35243   -19.261148    125233.54   -43661.308    3324.4473   -46985.755   0.35537943 
   99000    274.99241    21.584303    125234.19   -43645.313    3356.6721   -47001.985   0.35937519 
   99100    273.06335   -25.606296    125218.75   -43705.682    3333.1252   -47038.808     0.342172 
   99200    274.08478   -4.4329111    125212.86   -43686.349    3345.5931   -47031.942   0.34639269 
   99300    273.62847   -10.994586    125215.69   -43659.514    3340.0232   -46999.537   0.36362572 
   99400    272.68419  -0.24513303    125238.96   -43698.658     3328.497   -47027.155   0.33671571 
   99500     274.1179     18.66249    125234.25   -43655.331    3345.9974   -47001.329   0.34914836 
   99600    275.92778    22.917398    125233.07   -43633.277    3368.0896   -47001.367   0.36409095 
   99700    272.09844   -3.8024725    125234.25   -43690.674     3321.347   -47012.021   0.33074661 
   99800    274.75461   -2.7304502    125214.39   -43667.256    3353.7693   -47021.026   0.36004169 
   99900    271.07913   -47.915863    125225.69   -43704.867    3308.9049   -47013.771   0.35384672 
  100000    276.59303   -1.3693533    125211.45   -43667.082    3376.2099   -47043.292   0.33696771 
Loop time of 127.717 on 6 procs for 100000 steps with 4096 atoms

Performance: 338.249 ns/day, 0.071 hours/ns, 782.983 timesteps/s
98.9% CPU use with 6 MPI tasks x no OpenMP threads

MPI task timing breakdown:
Section |  min time  |  avg time  |  max time  |%varavg| %total
---------------------------------------------------------------
Pair    | 92.477     | 94.686     | 96.379     |  14.2 | 74.14
Neigh   | 5.8406     | 6.0224     | 6.3068     |   8.1 |  4.72
Comm    | 21.675     | 23.644     | 26.004     |  31.8 | 18.51
Output  | 0.19065    | 0.19225    | 0.1995     |   0.7 |  0.15
Modify  | 2.2761     | 2.3125     | 2.3358     |   1.5 |  1.81
Other   |            | 0.859      |            |       |  0.67

Nlocal:        682.667 ave         703 max         665 min
Histogram: 1 1 0 2 0 0 0 0 1 1
Nghost:        1602.00 ave        1625 max        1574 min
Histogram: 1 0 0 1 1 1 0 0 0 2
Neighs:        0.00000 ave           0 max           0 min
Histogram: 6 0 0 0 0 0 0 0 0 0
FullNghs:      21623.0 ave       22221 max       21144 min
Histogram: 2 0 0 2 0 0 0 0 1 1

Total # of neighbors = 129738
Ave neighs/atom = 31.674316
Neighbor list builds = 6500
Dangerous builds = 0

undump              1
unfix               2
unfix               3
unfix               4




################################################
#######         Run Simulation         #########
################################################

reset_timestep      0
log                 log.run_${NAME}
log                 log.run_ice_273K_1atm_mW
