
# Set production fixes - Nose/Hoover
#
fix                 2 all nph iso ${PRES} ${PRES} ${PCOUPL}
fix                 2 all nph iso 1 ${PRES} ${PCOUPL}
fix                 2 all nph iso 1 1 ${PCOUPL}
fix                 2 all nph iso 1 1 10000.0
fix                 3 all temp/csvr ${TEMP} ${TEMP} ${TCOUPL} 837492
fix                 3 all temp/csvr 273 ${TEMP} ${TCOUPL} 837492
fix                 3 all temp/csvr 273 273 ${TCOUPL} 837492
fix                 3 all temp/csvr 273 273 5000.0 837492

# Define Order parameter
#
compute             2 all orientorder/atom nnn NULL cutoff 3.5
thermo              200
thermo_style        custom step temp press vol etotal ke pe c_1[4]

# Run 1ns simulation
dump		    1 all custom 400 prod.${NAME}.dump id type x y z vx vy vz c_2[*]
dump		    1 all custom 400 prod.ice_273K_1atm_mW.dump id type x y z vx vy vz c_2[*]
run                 200000
Neighbor list info ...
  update every 1 steps, delay 0 steps, check yes
  max neighbors/atom: 2000, page size: 100000
  master list distance cutoff = 6.3065
  ghost atom cutoff = 6.3065
  binsize = 3.15325, bins = 16 16 16
  2 neighbor lists, perpetual/occasional/extra = 1 1 0
  (1) pair sw, perpetual
      attributes: full, newton on
      pair build: full/bin/atomonly
      stencil: full/bin/3d
      bin: standard
  (2) compute orientorder/atom, occasional, copy from (1)
      attributes: full, newton on
      pair build: copy
      stencil: none
      bin: none
Per MPI rank memory allocation (min/avg/max) = 5.837 | 5.837 | 5.838 Mbytes
Step Temp Press Volume TotEng KinEng PotEng c_1[4] 
       0    276.59303   -1.3224163    125211.45   -43667.083    3376.2099   -47043.293   0.33696771 
     200    275.32679    20.915524    125192.38   -43656.944    3360.7536   -47017.698    0.3566157 
     400    273.15504    36.334788     125172.8   -43651.428    3334.2443   -46985.672   0.35405732 
     600    271.79792    2.2526856    125211.14   -43683.944    3317.6788   -47001.623   0.33645047 
     800    268.96966   -1.2534528    125216.88   -43696.975    3283.1558   -46980.131   0.35176057 
    1000    270.29293     21.91852    125151.18   -43707.389    3299.3083   -47006.697   0.36378173 
    1200    264.77816   -8.1037878    125135.43   -43728.592    3231.9926   -46960.585   0.34657373 
    1400     269.7318    22.947356    125183.55    -43721.66    3292.4588   -47014.119   0.34954803 
    1600    268.48409   -41.492947    125215.01   -43723.765    3277.2288   -47000.994   0.36375056 
    1800    271.67986   -27.528688    125177.89    -43729.17    3316.2377   -47045.408   0.33817039 
    2000    272.87346    44.644859    125125.09   -43688.552    3330.8073    -47019.36   0.35243071 
    2200    271.76396    19.406685    125172.16   -43660.105    3317.2642   -46977.369   0.35807993 
    2400    268.62828   -92.092528    125307.58   -43675.557    3278.9888   -46954.546   0.32975413 
    2600    265.88305   -81.607028    125283.05   -43715.278    3245.4794   -46960.757   0.34570462 
    2800    268.87396    36.047427    125086.61   -43730.203    3281.9877   -47012.191   0.37265267 
    3000    271.21412    97.712082    125008.23   -43740.888    3310.5527   -47051.441    0.3448929 
    3200    267.69851   -24.986635    125204.11   -43692.644    3267.6397   -46960.284   0.34723623 
    3400    266.20631   -131.15026     125433.7   -43727.181    3249.4253   -46976.606   0.35144644 
    3600    271.53416   -60.453507    125302.62   -43752.875    3314.4593   -47067.334   0.32990247 
    3800    276.44958    128.85205    124991.15   -43688.615     3374.459   -47063.074   0.34812124 
    4000    273.85146    123.39985    125048.41   -43683.843    3342.7452   -47026.588   0.35722089 
    4200    264.85105   -142.23311    125472.79   -43698.683    3232.8824   -46931.566    0.3267121 
    4400    270.25641   -201.71863    125555.77   -43678.181    3298.8625   -46977.044   0.32792423 
    4600    275.74013    97.389962    125106.09   -43666.386     3365.799   -47032.185    0.3705144 
    4800    270.10923    256.56995    124837.49   -43659.778     3297.066   -46956.844   0.36425666 
    5000    272.61497    39.841482    125214.09   -43654.691     3327.652   -46982.343   0.34033599 
    5200    271.96527   -275.52866    125643.93   -43652.125    3319.7216   -46971.847   0.33274012 
    5400     270.3748   -66.962801    125400.53    -43615.87    3300.3076   -46916.178   0.33381716 
    5600    275.32522    229.81519    124908.78   -43600.795    3360.7345    -46961.53   0.36702116 
    5800    273.24396     180.7778    124966.94   -43591.893    3335.3297   -46927.223   0.37593733 
    6000    273.99729   -138.67968    125516.47   -43579.229    3344.5252   -46923.754   0.32947824 
    6200    275.93453   -263.23064    125678.83   -43571.164     3368.172   -46939.336   0.32316812 
    6400    278.62661    35.561757    125167.31   -43542.849    3401.0326   -46943.882   0.36582833 
    6600    277.62788     288.6191    124817.23   -43577.402    3388.8417   -46966.244   0.37371854 
    6800    268.00948    30.882785    125159.78   -43610.527    3271.4355   -46881.963   0.34955476 
    7000    271.42029   -240.65425    125582.27   -43619.331    3313.0693     -46932.4   0.34088734 
    7200    269.69719   -68.642381    125404.15   -43568.603    3292.0364    -46860.64   0.33861023 
    7400    279.66157    189.67402    124977.15   -43552.843    3413.6658   -46966.509   0.34956753 
    7600    273.10505    138.09019    124985.27   -43587.123    3333.6342   -46920.757   0.37801205 
    7800     275.0951    -138.2944    125387.13   -43610.698    3357.9256   -46968.623   0.34290823 
    8000    273.80204   -158.67883    125537.46   -43574.817    3342.1419   -46916.959   0.32727715 
    8200    276.64815   -60.510759    125203.51   -43608.372    3376.8827   -46985.255   0.35832938 
    8400    274.53777    198.08662    124893.81   -43635.473    3351.1226   -46986.596   0.36918221 
    8600      269.796    74.204378    125097.44   -43595.396    3293.2426   -46888.639   0.34464459 
    8800     273.8267   -183.64398    125539.05   -43540.995     3342.443   -46883.438   0.33711526 
    9000    279.28756   -185.14043    125543.56   -43521.827    3409.1005   -46930.927    0.3359622 
    9200    279.75172     89.12655    125120.69   -43507.424    3414.7662    -46922.19   0.35583104 
    9400    278.87603    192.34681    124955.22   -43551.558    3404.0771   -46955.635    0.3764433 
    9600    273.63163   -9.3117149    125271.93   -43541.498    3340.0619    -46881.56   0.35624646 
    9800    274.35781   -188.47912    125545.31   -43554.937    3348.9259   -46903.863   0.32820769 
   10000    272.63297   -55.169004    125347.37   -43550.243    3327.8717   -46878.114   0.35608413 
   10200    283.11121    204.47066    125015.48   -43549.792    3455.7735   -47005.566    0.3656949 
   10400    277.04992    77.367183    125127.04   -43538.092    3381.7869   -46919.879   0.35061459 
   10600    276.76662   -100.03403    125476.47   -43520.628    3378.3288   -46898.957    0.3408991 
   10800    270.29149   -164.86586    125486.97   -43547.274    3299.2906   -46846.564   0.34477668 
   11000     274.4418    31.953972    125128.56   -43583.974    3349.9511   -46933.925    0.3557762 
   11200      274.702    185.09912    124918.49   -43597.875    3353.1272   -46951.002   0.37920413 
   11400    276.77267     33.09889    125183.15   -43621.935    3378.4027   -47000.338   0.35545075 
   11600    278.11147   -160.58204    125507.74   -43594.978    3394.7447   -46989.723   0.32351079 
   11800    267.99838   -69.533883    125387.73   -43658.536       3271.3   -46929.837    0.3462264 
   12000    274.77755    163.40574    125026.75   -43659.185    3354.0494   -47013.234    0.3718617 
   12200    276.81905    127.22824    124977.39   -43640.008    3378.9688   -47018.976   0.35094415 
   12400    267.14901   -47.763682    125292.69   -43611.332    3260.9322   -46872.264    0.3510368 
   12600    271.14567   -167.44876    125461.83   -43620.693    3309.7171   -46930.411   0.34788162 
   12800    270.44702   -9.5201611     125224.9   -43629.293    3301.1891   -46930.482   0.34845471 
   13000    273.96411    157.93153    124973.98    -43611.37    3344.1202    -46955.49   0.36807182 
   13200    275.04963    84.000687    125107.34   -43587.858    3357.3705   -46945.229   0.36885683 
   13400    271.17778   -156.35878    125417.97   -43603.698    3310.1091   -46913.807   0.33322854 
   13600    273.55757   -86.942336    125413.97   -43600.915    3339.1579   -46940.073   0.34237039 
   13800    279.01478    80.577138    125127.29   -43594.552    3405.7708   -47000.323   0.36600392 
   14000    276.69707    159.76143    125040.35   -43608.341    3377.4798   -46985.821   0.35616313 
   14200    271.97303   -43.915071    125286.74   -43626.661    3319.8163   -46946.477    0.3427033 
   14400    275.16967   -140.75457    125451.98   -43653.882    3358.8358   -47012.717   0.33777749 
   14600    272.40021   -82.008003    125295.33   -43649.269    3325.0305   -46974.299   0.33808153 
   14800    274.47444    109.14389    125111.83   -43628.761    3350.3495   -46979.111   0.35530008 
   15000    271.58181    36.067435    125210.13    -43676.18    3315.0409   -46991.221   0.35776387 
   15200    269.53992   -101.32247     125382.6   -43728.563    3290.1167    -47018.68   0.34196727 
   15400    266.99046   -70.283877    125301.85   -43733.057     3258.997   -46992.054   0.33364633 
   15600    269.44155    104.25141       125056   -43773.783     3288.916   -47062.699   0.36067466 
   15800    270.71367    101.97187    125032.11   -43722.772     3304.444   -47027.216   0.36557596 
   16000    273.35242   -52.302514    125265.85   -43712.372    3336.6537   -47049.025   0.33570638 
   16200    273.96512   -73.898832    125384.38   -43666.163    3344.1325   -47010.296    0.3352487 
   16400    274.11343   -5.6162939    125231.59   -43663.773    3345.9428   -47009.716    0.3512684 
   16600    273.74237     77.31753    125089.15   -43680.517    3341.4136    -47021.93   0.34241568 
   16800    273.53813    84.611749    125182.84    -43640.65    3338.9205    -46979.57   0.35323884 
   17000    270.57866   -84.635041    125356.57    -43661.69     3302.796   -46964.486   0.34904487 
   17200    274.08017    -80.02692    125314.79   -43646.064    3345.5368   -46991.601   0.33058154 
   17400    274.84375    80.925557    125102.92   -43686.735    3354.8575   -47041.592   0.35343253 
   17600     267.5183    61.198913    125049.83   -43720.546      3265.44   -46985.986   0.36806178 
   17800    272.03801   -45.002072    125228.54   -43738.086    3320.6094   -47058.695   0.33851808 
   18000    270.30863   -108.79989    125349.94   -43764.197    3299.4999   -47063.697   0.32812601 
   18200    266.79501   -23.721215    125207.21   -43793.461    3256.6112   -47050.072   0.35303226 
   18400    271.56781    150.75815    124999.39   -43808.117    3314.8699   -47122.987   0.35406667 
   18600     265.9674    61.659032     125046.1   -43772.244     3246.509   -47018.753   0.36144245 
   18800    269.86357   -67.064159    125275.32   -43718.855    3294.0673   -47012.922   0.35790095 
   19000    272.40187   -108.33539    125332.36   -43733.656    3325.0509   -47058.707   0.33273401 
   19200    272.14557     62.52301    125114.33   -43715.253    3321.9224   -47037.175   0.34446731 
   19400    269.48307    110.07696    124984.99   -43711.993    3289.4228   -47001.415   0.37663434 
   19600    271.07349    32.931957    125163.33    -43732.64     3308.836   -47041.476   0.34782393 
   19800    271.82195   -111.81072       125377   -43725.523    3317.9721   -47043.495   0.32915441 
   20000    274.80029   -37.384453    125283.29   -43722.683    3354.3269    -47077.01   0.35747967 
   20200    268.34088    115.31257    125019.61   -43747.363    3275.4808   -47022.844   0.35919051 
   20400    264.01197    88.963432    125018.87   -43726.055    3222.6402   -46948.695   0.35815379 
   20600    273.38946   -41.691755    125262.71   -43728.479    3337.1058   -47065.585   0.35779157 
   20800    268.66768   -120.96503    125316.23   -43715.829    3279.4698   -46995.299   0.34537269 
   21000    269.88633    47.347836    125072.27   -43717.395    3294.3451    -47011.74   0.34474824 
   21200     271.1604    115.70109    124924.13   -43706.629    3309.8969   -47016.525   0.38673421 
   21400    269.87205   -11.633617    125117.92   -43702.959    3294.1708   -46997.129   0.36189771 
   21600    268.23974   -152.25372    125368.94   -43660.683    3274.2461   -46934.929   0.32883712 
   21800     273.6439   -45.390728    125272.19   -43620.338    3340.2115   -46960.549   0.36339344 
   22000    270.52009    75.788941    124965.86   -43627.517    3302.0811   -46929.598   0.38601839 
   22200    275.85405    153.77442    124947.28   -43588.586    3367.1897   -46955.776   0.35865479 
   22400    276.52426   -57.367401    125341.09   -43569.357    3375.3704   -46944.727   0.35548364 
   22600    275.86068   -177.25504    125563.84   -43571.579    3367.2705   -46938.849   0.33844477 
   22800    273.74592    33.033812    125196.11   -43613.675    3341.4568   -46955.131   0.33661586 
   23000    275.24211    306.69118    124777.77   -43626.462      3359.72   -46986.182   0.39028479 
   23200    272.28075    89.626869    125050.01   -43615.036    3323.5725   -46938.609   0.37826942 
   23400    277.35018   -254.47291    125642.47   -43625.647     3385.452   -47011.099   0.30740861 
   23600    273.67729   -213.20624    125538.05   -43633.461    3340.6192    -46974.08   0.33947625 
   23800    276.26157    255.08498    124848.73   -43585.704    3372.1639   -46957.868   0.38565243 
   24000    273.43593    321.44614    124738.99    -43612.93     3337.673   -46950.603   0.37733148 
   24200     274.5724   -128.94808     125430.3   -43605.147    3351.5452   -46956.692   0.35051827 
   24400    272.75385   -378.30194    125806.17   -43605.862    3329.3473   -46935.209    0.3274953 
   24600    272.90805   -24.548992    125220.04   -43609.806    3331.2295   -46941.036   0.34967008 
   24800    278.87025    376.26384    124644.03   -43539.994    3404.0066   -46944.001   0.40175096 
   25000    273.75988    141.63499     125066.3   -43553.484    3341.6273   -46895.111   0.37551062 
   25200    271.73289   -330.10819     125786.9   -43575.779    3316.8851   -46892.664   0.31146168 
   25400    275.21644   -248.33135    125600.49   -43624.139    3359.4067   -46983.546   0.33373157 
   25600    271.28127    228.24881    124823.69   -43645.592    3311.3723   -46956.965   0.39039726 
   25800    274.66322    310.71257    124714.49   -43621.763    3352.6539   -46974.417   0.38696642 
   26000     272.3484   -76.645741    125348.59   -43606.716    3324.3981   -46931.114    0.3478031 
   26200    277.04247   -268.99534    125642.84   -43633.505    3381.6959     -47015.2   0.33305873 
   26400    272.69237   -4.3740738    125199.89    -43653.99    3328.5968   -46982.587   0.34617536 
   26600    276.52489    243.04633    124825.15   -43661.652    3375.3782    -47037.03   0.37048019 
   26800    276.32798    83.298838    125084.36   -43665.646    3372.9746   -47038.621   0.37170644 
   27000    273.00632   -193.85137    125477.41   -43667.504    3332.4291   -46999.934   0.32885978 
   27200     272.2568   -102.56007    125365.27   -43662.467      3323.28   -46985.747   0.33291191 
   27400    272.96735    134.19035    124990.76   -43634.603    3331.9534   -46966.556   0.37312047 
   27600    275.45047    153.14866    124960.54   -43643.129    3362.2634   -47005.392   0.36360071 
   27800    272.21243   -80.106497    125280.81   -43630.359    3322.7385   -46953.098   0.34658548 
   28000    273.67101   -173.88427    125430.62   -43623.543    3340.5425   -46964.086   0.34430861 
   28200     272.8118    7.9533672     125190.1   -43633.881    3330.0546   -46963.935   0.34799955 
   28400    273.98576    166.09873    124962.87   -43633.129    3344.3845   -46977.513   0.35375662 
   28600    273.74773    8.7088552    125142.17   -43649.252     3341.479   -46990.731   0.36799838 
   28800     271.2693   -117.74786     125416.3   -43661.938    3311.2262   -46973.164   0.33529235 
   29000    269.72847   -68.227792    125344.21   -43699.403    3292.4182   -46991.822   0.32905324 
   29200    272.78163    131.10179    125027.68   -43732.136    3329.6863   -47061.822   0.36641083 
   29400    265.52284    83.415902    124954.26   -43733.023    3241.0826   -46974.106   0.37755358 
   29600    272.22491   -49.975754    125253.92   -43699.951    3322.8909   -47022.841   0.34243608 
   29800    270.01539   -168.84176    125472.53   -43629.582    3295.9205   -46925.503   0.34192414 
   30000    272.93969   -28.474882    125271.45   -43618.419    3331.6157   -46950.034    0.3430023 
   30200    270.96928    102.85209    124977.83   -43628.716    3307.5641    -46936.28   0.35701582 
   30400    270.41189    135.22875    125034.36   -43678.014    3300.7604   -46978.774   0.37110276 
   30600    277.32942   -77.298938    125354.15   -43627.589    3385.1986   -47012.788   0.34135375 
   30800    280.37195   -158.64092    125439.46   -43595.022     3422.337   -47017.359   0.32229938 
   31000    275.87886    11.043287    125172.44   -43586.605    3367.4925   -46954.098   0.37279827 
   31200     273.6246     130.3067    125003.33   -43589.348     3339.976   -46929.324   0.37758083 
   31400    274.11625   -1.5627068    125217.83    -43586.35    3345.9773   -46932.328   0.34408595 
   31600    271.50806   -134.93256    125450.02   -43640.512    3314.1407   -46954.653   0.34476525 
   31800    272.91528   -36.401666    125321.65   -43610.515    3331.3178   -46941.833   0.33951308 
   32000     271.7326     111.2773    125099.64   -43587.631    3316.8814   -46904.513   0.34622087 
   32200    269.47041    95.072013    125192.28   -43615.537    3289.2682   -46904.805   0.36003353 
   32400    274.43287    -150.6448    125461.76   -43616.452    3349.8421   -46966.294   0.34585365 
   32600    269.92715    -131.6682    125442.25   -43605.291    3294.8434   -46900.134   0.32625403 
   32800    274.39648    75.325487    125144.68   -43598.901    3349.3979   -46948.299   0.35669004 
   33000    277.43168    125.08779    125034.95   -43591.679    3386.4469   -46978.125   0.36956633 
   33200     275.1605   -26.050402    125303.77   -43591.068    3358.7239   -46949.792   0.33580403 
   33400    279.27529   -158.43627    125509.91    -43553.95    3408.9507   -46962.901   0.33366809 
   33600    275.48537   -41.527749    125331.08   -43492.528    3362.6894   -46855.217   0.35279209 
   33800    281.73441    157.77326    125055.69   -43520.607    3438.9677   -46959.575   0.34531878 
   34000    273.28509    37.909781    125115.01   -43555.912    3335.8318   -46891.744   0.37149491 
   34200     272.9443   -125.48768     125401.1   -43591.132     3331.672   -46922.804   0.35383883 
   34400    270.68139   -115.66479    125439.59   -43641.239      3304.05   -46945.289   0.32095177 
   34600    278.12958    84.864504    125118.86   -43608.271    3394.9657   -47003.237   0.35523157 
   34800    270.70503    157.13275    124932.87   -43644.138    3304.3385   -46948.476   0.37700205 
   35000    269.87902   -35.058999    125214.59   -43676.311    3294.2559   -46970.567    0.3470146 
   35200    269.70423   -200.63654    125554.52   -43669.586    3292.1223   -46961.708   0.32332228 
   35400     272.8291   -35.026895    125353.05   -43641.247    3330.2658   -46971.513   0.33674414 
   35600    274.11711     173.4793    124903.19   -43634.858    3345.9878   -46980.845   0.36290205 
   35800    277.35942    160.47822    124950.42   -43635.353    3385.5648   -47020.918   0.36261657 
   36000    272.23793   -178.62806    125463.57   -43634.756    3323.0498   -46957.806   0.35508482 
   36200    272.52279   -258.35823    125620.39   -43645.347    3326.5268   -46971.874   0.31804697 
   36400    270.05327    81.529604    125119.96   -43668.058    3296.3829   -46964.441   0.33566018 
   36600    275.39016    310.06433    124743.47   -43644.999    3361.5272   -47006.526   0.38915287 
   36800    269.18832    47.089202    125116.18   -43684.165    3285.8249    -46969.99   0.36691102 
   37000    270.62141   -279.26731    125631.65   -43672.945    3303.3178   -46976.263   0.31963067 
   37200    275.98699   -135.16476    125469.82   -43637.566    3368.8124   -47006.378   0.34007053 
   37400    273.71704    189.65462    124894.59   -43629.024    3341.1043   -46970.128   0.37665391 
   37600    272.50074    201.80244    124864.15   -43653.531    3326.2577   -46979.788   0.36177991 
   37800    273.16249    -116.3142    125443.45   -43623.357    3334.3353   -46957.693   0.35084384 
   38000    273.96481   -288.57365    125698.36   -43669.193    3344.1288   -47013.322   0.32392553 
   38200    272.11597    51.725785    125193.42    -43664.02    3321.5611   -46985.581   0.32883063 
   38400    274.74297    322.05367    124768.02   -43632.965    3353.6273   -46986.592   0.37710413 
   38600    270.83493    33.413066    125113.29     -43633.5    3305.9242   -46939.424   0.38119674 
   38800    269.30581   -264.07384    125608.62   -43677.273    3287.2591   -46964.532   0.31599233 
   39000    276.07578   -145.05952    125439.94   -43700.033    3369.8961   -47069.929   0.33827105 
   39200    270.44126    196.43072    124913.28   -43717.138    3301.1188   -47018.257   0.38115375 
   39400    273.64042    225.22899    124876.25   -43710.151    3340.1692    -47050.32   0.34504883 
   39600    267.36554   -95.493405     125398.2   -43772.059    3263.5753   -47035.635   0.33824887 
   39800    272.11384   -231.07375    125569.99   -43761.398    3321.5351   -47082.933   0.34607368 
   40000    274.89014    42.756062    125123.73   -43777.407    3355.4237   -47132.831   0.32356742 
   40200    268.85255    265.76586     124762.2   -43756.917    3281.7264   -47038.643   0.36929142 
   40400    267.42952    82.969828    125052.72   -43747.595    3264.3562   -47011.951   0.38091166 
   40600    266.17125   -246.31249    125526.57   -43773.479    3248.9973   -47022.477   0.32228776 
   40800     271.7538   -173.57206    125404.01   -43785.766    3317.1403   -47102.906   0.33043511 
   41000    267.01797    204.34012     124917.2   -43750.455    3259.3327   -47009.788   0.38662771 
   41200    271.54197    193.98028    124892.19   -43773.886    3314.5545   -47088.441   0.34209489 
   41400    271.44716   -53.465222    125299.38   -43749.345    3313.3973   -47062.742   0.33909334 
   41600    271.03224   -185.99735    125508.81   -43741.844    3308.3326   -47050.176    0.3603143 
   41800    271.97608   -13.202255    125207.08   -43738.456    3319.8535    -47058.31   0.33982808 
   42000     268.0496     198.2739    124881.88   -43717.842    3271.9252   -46989.767   0.35323687 
   42200     270.1373    105.28363    125029.15    -43738.44    3297.4086   -47035.848   0.37570222 
   42400    264.61712   -149.31874    125372.78   -43782.545     3230.027   -47012.572   0.33692444 
   42600    265.10288   -95.395151    125353.85   -43808.311    3235.9564   -47044.267   0.33475583 
   42800    268.68214    30.368394     125029.2       -43807    3279.6463   -47086.647   0.37580489 
   43000    268.72997    187.11398    124936.49   -43768.952    3280.2302   -47049.182   0.35574378 
   43200    270.12406   -27.800082    125228.21   -43774.942    3297.2469   -47072.189   0.33271498 
   43400    266.54809   -147.87974    125392.53   -43761.536    3253.5972   -47015.133   0.35249516 
   43600    265.06427      23.6831       125171   -43761.531    3235.4851   -46997.016   0.34641202 
   43800    270.23281    132.69233    124967.55   -43731.457    3298.5744   -47030.031   0.34305928 
   44000    271.77821    45.862299     125102.5    -43749.31    3317.4382   -47066.748   0.36509889 
   44200    268.73243   -90.681229    125332.87   -43799.912    3280.2602   -47080.172    0.3453821 
   44400    268.44976   -67.004624    125280.55   -43780.155    3276.8098   -47056.964   0.32564733 
   44600    269.46466    91.678245    125073.88   -43716.902     3289.198     -47006.1   0.36774736 
   44800     272.1116    125.74825    125059.63   -43683.974    3321.5077   -47005.481   0.36680888 
   45000    267.24235   -42.794075    125258.12   -43710.524    3262.0716   -46972.596   0.32519814 
   45200    270.16184   -71.879537    125341.05   -43726.935    3297.7081   -47024.643   0.35342172 
   45400    269.47529   -11.001164    125164.27   -43773.308    3289.3278   -47062.636   0.35861643 
   45600    269.17672    67.689898    125022.47    -43760.48    3285.6833   -47046.164   0.33228169 
   45800     274.3521    48.275243    125115.63   -43733.915    3348.8561   -47082.771   0.35858012 
   46000    270.38186   -61.276336    125278.31   -43730.255    3300.3938   -47030.649    0.3565233 
   46200    273.04656   -39.931797    125255.83   -43753.058    3332.9203   -47085.979   0.32526199 
   46400    271.45052    53.651523    125111.11   -43740.136    3313.4383   -47053.574   0.36208381 
   46600    272.45592    61.157594    125112.63   -43745.725    3325.7106   -47071.436   0.36680082 
   46800    271.10092   -28.353562    125238.17   -43711.027    3309.1709   -47020.198   0.32272188 
   47000    272.75389   -7.0862893    125296.63   -43693.711    3329.3478   -47023.059   0.33862084 
   47200    275.96663   -6.6500257    125247.17   -43669.391    3368.5638   -47037.955    0.3622432 
   47400    275.81287    67.650098    125210.18   -43603.786    3366.6869   -46970.473   0.32768823 
   47600    273.21328    49.256364    125259.71   -43580.693    3334.9552   -46915.648   0.34874524 
   47800    278.58195   -41.056576    125323.11   -43553.446    3400.4875   -46953.933   0.36224385 
   48000    275.45524   -18.341519    125317.49   -43559.028    3362.3216   -46921.349   0.33245974 
   48200     276.0813   -29.887406    125247.68   -43560.711    3369.9636   -46930.674   0.35079203 
   48400    275.79161    26.874641    125236.66   -43543.177    3366.4274   -46909.605   0.36412264 
   48600    276.17029    20.443789    125293.07   -43596.855    3371.0498   -46967.905   0.32300102 
   48800    277.81338   -12.276299    125305.63   -43546.456     3391.106   -46937.562   0.33577905 
   49000    281.86731   -8.3421267    125248.38   -43523.491      3440.59   -46964.081   0.36713448 
   49200    276.96885    32.783538    125210.45   -43556.581    3380.7973   -46937.379   0.33536467 
   49400    275.30058   -6.4491711    125263.48   -43567.897    3360.4337   -46928.331   0.34081793 
   49600    275.18816   -33.654084    125319.76   -43587.187    3359.0615   -46946.249   0.35900274 
   49800    277.61051    31.293929    125298.15   -43567.958    3388.6297   -46956.587   0.33225233 
   50000    276.76995    22.309924    125233.77   -43565.783    3378.3695   -46944.152   0.34425422 
   50200    273.82374   -13.206694    125229.35    -43599.78    3342.4069   -46942.187   0.36272959 
   50400    272.26778   -20.130348    125278.95    -43598.93    3323.4141   -46922.344   0.33550785 
   50600    275.18441   -50.143535    125302.71   -43618.115    3359.0157   -46977.131   0.33260395 
   50800    275.17735    36.653393    125229.91    -43625.79    3358.9295   -46984.719   0.36087997 
   51000    277.20886    70.642706       125173   -43578.884     3383.727   -46962.611   0.34974371 
   51200    273.18216   -12.744788    125233.69   -43601.573    3334.5754   -46936.148   0.34210531 
   51400    281.62618   -7.5840074    125327.58   -43568.067    3437.6467   -47005.714   0.35300906 
   51600     276.8038   -16.403241     125334.5   -43569.936    3378.7826   -46948.719   0.33331209 
   51800    278.62228   -8.4311157    125260.45    -43569.15    3400.9798    -46970.13   0.33312087 
   52000    275.69275    54.495685     125202.5   -43524.633    3365.2208   -46889.854   0.36316527 
   52200    278.95205    24.877692       125279   -43497.244    3405.0051   -46902.249   0.34804383 
   52400    279.59314   -49.432666    125386.78   -43485.105    3412.8305   -46897.935    0.3275584 
   52600    277.04106   -32.661351    125335.73   -43520.286    3381.6788   -46901.964   0.35285783 
   52800    275.43589    51.972375    125188.41   -43538.711    3362.0854   -46900.796   0.35708912 
   53000    278.38348    42.606482    125193.11   -43545.267    3398.0649   -46943.332   0.33398769 
   53200    276.78393   -25.931526    125341.38   -43554.411    3378.5401   -46932.951   0.34542324 
   53400    277.87093   -91.525873    125356.93   -43574.249    3391.8084   -46966.058   0.34613695 
   53600    272.03737    40.333508    125184.44   -43605.341    3320.6016   -46925.943   0.33509543 
   53800    272.67593     75.93521    125121.68   -43592.229    3328.3961   -46920.625   0.36541379 
   54000    272.77734   -45.646722    125265.83    -43583.55     3329.634   -46913.184   0.35220552 
   54200    268.80296   -103.02276    125389.78   -43589.085     3281.121   -46870.206   0.32370022 
   54400    278.52905   -8.8970629     125275.1   -43612.733    3399.8418   -47012.575   0.35246062 
   54600    272.28437    106.83316    125060.09   -43607.033    3323.6166    -46930.65     0.376927 
   54800    278.24559    92.346409    125101.16   -43557.774    3396.3817   -46954.156   0.34075738 
   55000    276.21583   -78.371818    125402.13   -43559.714    3371.6056   -46931.319    0.3459811 
   55200    276.82174   -161.00311    125491.33    -43589.55    3379.0016   -46968.552   0.33391977 
   55400    278.03876    37.487925     125195.4   -43608.599    3393.8571   -47002.456   0.33288633 
   55600    269.46232    181.42283    124956.57   -43638.906    3289.1695   -46928.076   0.36902603 
   55800    276.46348     46.95277    125147.11   -43615.632    3374.6286   -46990.261   0.35773078 
   56000    279.85466   -144.35318    125502.64   -43600.713    3416.0228   -47016.736    0.3157956 
   56200    270.81153   -143.51671     125451.1    -43623.25    3305.6385   -46928.888   0.33933254 
   56400    272.02597    103.68243    125037.74   -43628.089    3320.4625   -46948.551   0.36906151 
   56600    271.04799    158.17789    124908.88   -43632.564    3308.5248   -46941.089   0.36554607 
   56800    278.43165   -44.838688    125269.86   -43594.357    3398.6529    -46993.01   0.35174424 
   57000    276.60735   -179.45367     125568.4   -43587.647    3376.3847   -46964.032   0.33509814 
   57200    271.19446    -8.959339    125335.49   -43620.978    3310.3127    -46931.29   0.33223457 
   57400    276.08714    206.30671    124942.12   -43640.718    3370.0348   -47010.753   0.36476698 
   57600    272.60082    174.39245    125014.44   -43609.744    3327.4793   -46937.224   0.37284224 
   57800    273.16205   -146.73011    125474.49   -43622.305      3334.33   -46956.635   0.31997031 
   58000    278.06521   -179.50435    125544.22   -43634.353      3394.18   -47028.533   0.32339298 
   58200    272.68027    41.322709    125103.73   -43671.632    3328.4491   -47000.081   0.38090558 
   58400    273.83042    254.73632    124859.18   -43666.047    3342.4883   -47008.535    0.3580867 
   58600     274.8401    41.621524    125238.49   -43650.965    3354.8129   -47005.778   0.33943056 
   58800    272.14842   -241.83649     125677.2   -43679.314    3321.9572   -47001.271   0.32813229 
   59000    277.22124   -68.429865    125423.71   -43701.942    3383.8782    -47085.82   0.31564884 
   59200    271.54451    209.16146    124897.78   -43703.555    3314.5856   -47018.141   0.35748705 
   59400    277.31836    204.95575    124970.04   -43654.624    3385.0636   -47039.688   0.38305129 
   59600    274.84596   -147.64386     125529.2   -43651.927    3354.8845   -47006.812   0.32022584 
   59800    272.03425   -246.89341    125637.69   -43638.855    3320.5635   -46959.419    0.3124384 
   60000     272.8415    94.859631    125143.19   -43628.261    3330.4171   -46958.679   0.37149778 
   60200    274.74289    244.09325    124880.11   -43605.232    3353.6263   -46958.858   0.36249955 
   60400    274.08372    29.746338    125299.46   -43579.546    3345.5803   -46925.126   0.34113695 
   60600    273.14089    -283.1679    125722.29   -43614.378    3334.0716   -46948.449   0.33045462 
   60800    275.72505   -69.796001    125440.29   -43560.597     3365.615   -46926.212   0.32603593 
   61000    278.36633    197.41331    124946.68   -43597.967    3397.8555   -46995.822   0.34907629 
   61200     274.3112    142.23083    125022.16   -43602.197    3348.3569   -46950.554    0.3760431 
   61400    273.92593   -184.27331    125483.38    -43600.73    3343.6541   -46944.384   0.32752193 
   61600    273.66388   -190.23408    125534.71    -43591.25    3340.4555   -46931.706   0.31838303 
   61800    273.82296     74.08329    125104.04   -43591.012    3342.3973   -46933.409    0.3654782 
   62000    275.31991    226.62685     124872.2   -43605.356    3360.6697   -46966.026   0.37247721 
   62200    271.53356    41.286518    125155.15   -43611.164    3314.4519   -46925.615   0.34215141 
   62400    278.42163   -136.15083    125503.78   -43580.536    3398.5306   -46979.067   0.34239432 
   62600    276.06625   -89.981989    125395.95   -43600.753    3369.7799   -46970.533   0.33164097 
   62800    277.00748    107.28855     125038.9   -43573.074    3381.2689   -46954.342   0.34906636 
   63000    279.20324    171.25927    125022.21   -43548.954    3408.0713   -46957.026   0.37728583 
   63200    274.79813   -60.865553    125352.96   -43553.608    3354.3005   -46907.908   0.34952035 
   63400    277.76759   -103.67606    125499.27   -43514.917    3390.5471   -46905.464   0.32247781 
   63600    276.81568   -59.926202    125324.73   -43496.293    3378.9277    -46875.22   0.35630476 
   63800    279.03572    146.74258    125116.72   -43520.925    3406.0264   -46926.951   0.36041577 
   64000    273.72371    14.058745    125195.91   -43526.171    3341.1858   -46867.356   0.34134434 
   64200    278.88736   -69.969994    125367.24   -43530.428    3404.2155   -46934.643    0.3525642 
   64400    273.51214   -26.149681     125329.3   -43513.472    3338.6033   -46852.075   0.35217426 
   64600    272.91245    23.732546    125161.79   -43561.336    3331.2832   -46892.619   0.33818744 
   64800    273.65047    76.854294    125139.25    -43572.75    3340.2918   -46913.042   0.37031359 
   65000     269.8373   -38.280378    125304.54   -43569.215    3293.7466   -46862.962   0.36198331 
   65200    269.97808   -105.34192     125387.5   -43589.691    3295.4651   -46885.156   0.32822025 
   65400     276.3837    17.930399     125255.4   -43608.504    3373.6548   -46982.159   0.35547032 
   65600    271.45818    106.41116    125152.26   -43633.824    3313.5318   -46947.355   0.36358189 
   65800    278.68881    27.311472    125239.76   -43609.976    3401.7918   -47011.768   0.33900004 
   66000    277.81301   -63.616166    125355.62   -43606.478    3391.1015   -46997.579   0.34658897 
   66200     274.0327    2.8892875    125278.82   -43635.805    3344.9575   -46980.763   0.35677162 
   66400    276.12433    62.716315    125133.74    -43631.42    3370.4888   -47001.909    0.3438512 
   66600    273.95366    36.959784    125167.06   -43646.158    3343.9927   -46990.151   0.35799202 
   66800    274.98597   -38.883358    125309.08   -43623.551    3356.5935   -46980.145   0.36598141 
   67000    273.43725   -91.746839     125332.8   -43642.306    3337.6892   -46979.995   0.33391329 
   67200    273.31921    21.293184    125196.88   -43660.966    3336.2483   -46997.215   0.35075315 
   67400    273.57797    18.350589    125112.85   -43691.708    3339.4068   -47031.115    0.3751143 
   67600    272.66856    37.406409    125173.96     -43652.1    3328.3062   -46980.407   0.34448116 
   67800    274.54242   -47.242609    125304.29       -43607    3351.1793   -46958.179   0.34315054 
   68000    271.42947   -32.477312       125312   -43602.803    3313.1813   -46915.984     0.368819 
   68200    273.09572   -51.444785     125205.1   -43667.599    3333.5203   -47001.119   0.33896854 
   68400    273.46762     38.79776    125133.45   -43617.896    3338.0598   -46955.956   0.35020123 
   68600    276.20889    7.5435681    125207.35   -43604.622    3371.5209   -46976.143   0.37540496 
   68800    273.95273   -59.848447    125332.62   -43576.124    3343.9813   -46920.106   0.34210784 
   69000    272.94737   -110.91318    125353.11   -43616.617    3331.7094   -46948.327   0.32953659 
   69200    277.12199    41.023493    125204.58   -43621.779    3382.6666   -47004.445   0.37043145 
   69400    271.07118    63.676484     125101.7   -43657.024    3308.8079   -46965.832   0.35799067 
   69600    273.02078   -3.8769664    125207.16   -43669.301    3332.6056   -47001.907   0.34082985 
   69800    275.04217   -45.134483     125344.3   -43639.177    3357.2794   -46996.457   0.35783832 
   70000    276.58853   -19.761352     125317.8   -43602.754    3376.1549   -46978.909   0.33465869 
   70200    271.04554    64.577743    125172.47   -43599.876     3308.495   -46908.371    0.3410345 
   70400    276.53486    34.704331    125167.74    -43606.83    3375.4999    -46982.33   0.38474877 
   70600    272.41319   -56.497189    125321.41   -43581.812    3325.1891   -46907.001   0.35631185 
   70800    277.38608   -83.961677    125408.67   -43602.231    3385.8902   -46988.122    0.3242541 
   71000    274.17631   -28.639262    125245.53   -43640.598    3346.7104   -46987.309   0.36335036 
   71200    278.93231    126.49873    125029.36   -43646.625    3404.7641   -47051.389   0.36631809 
   71400    274.76657    103.85151    125134.21    -43620.61    3353.9154   -46974.525   0.33744057 
   71600    276.07336   -88.218726    125487.47   -43600.527    3369.8667   -46970.394   0.34260723 
   71800    275.90123   -137.11128    125483.52   -43612.061    3367.7655   -46979.827   0.35083364 
   72000       274.13    111.78617     125064.2   -43641.435    3346.1451    -46987.58    0.3286528 
   72200    273.96131     189.7537    124919.91   -43671.889     3344.086   -47015.975   0.39123684 
   72400    272.97262    -24.91084    125292.25   -43652.071    3332.0177   -46984.089   0.37519333 
   72600    273.48288    -215.4829    125592.47   -43629.561    3338.2462   -46967.807   0.31414887 
   72800    275.32179   -61.898955    125329.72   -43691.364    3360.6926   -47052.056   0.34508575 
   73000    270.06983     246.2544    124880.92   -43695.111    3296.5849   -46991.696   0.39277599 
   73200    273.15315    152.43556    124981.38   -43715.761    3334.2213   -47049.982   0.33969499 
   73400    269.04556   -110.83088    125486.94    -43697.07    3284.0823   -46981.153   0.33625841 
   73600    272.19927    -177.4776    125599.47   -43683.275    3322.5778   -47005.853   0.35163961 
   73800       273.93    70.497201    125136.98     -43684.8    3343.7038   -47028.504   0.32757015 
   74000    269.02811    233.11575    124810.87   -43716.903    3283.8694   -47000.772   0.37652667 
   74200    267.58877     34.77515    125136.53   -43724.033    3266.3002   -46990.333   0.39622594 
   74400     266.6365   -274.03577     125598.2   -43693.985    3254.6763   -46948.662   0.31936118 
   74600    270.50135   -159.01889    125426.89   -43702.782    3301.8523   -47004.634    0.3297502 
   74800    271.54785    228.78969    124855.03   -43715.113    3314.6263   -47029.739   0.39593458 
   75000     272.3654    254.87457     124842.3   -43686.702    3324.6056   -47011.307   0.35877191 
   75200    272.12153   -91.309779    125407.52   -43665.303    3321.6289   -46986.932    0.3271457 
   75400    273.00554   -303.89174    125664.82   -43660.319    3332.4195   -46992.739   0.36293444 
   75600    275.65086    7.3801478    125189.22   -43636.131    3364.7094   -47000.841   0.34723788 
   75800    274.55811    305.06429     124763.9   -43609.707    3351.3708   -46961.077    0.3520555 
   76000    277.62303    90.797978    125115.53   -43607.604    3388.7825   -46996.386    0.3928425 
   76200    267.60845   -271.69948     125669.3   -43626.769    3266.5403    -46893.31   0.32742441 
   76400    272.30967   -194.03944    125537.23   -43600.732    3323.9254   -46924.657    0.3097028 
   76600    273.07418    184.87994    124950.63   -43590.075    3333.2574   -46923.332   0.39609522 
   76800    273.26844    234.39946    124881.72   -43585.684    3335.6286   -46921.312   0.37946726 
   77000     277.9311   -53.689994    125432.07   -43595.645     3392.543   -46988.188   0.31615975 
   77200    270.67162   -296.88893    125702.29    -43636.86    3303.9308   -46940.791   0.35312752 
   77400    273.24315   -16.711947    125217.22   -43615.701    3335.3198    -46951.02   0.35213736 
   77600    274.67778     288.9922    124780.71   -43641.102    3352.8316   -46993.934   0.34060913 
   77800    273.19851    109.73432    125070.25   -43650.268     3334.775   -46985.043   0.38337505 
   78000    274.85982    -173.2697    125549.29   -43653.065    3355.0537   -47008.119   0.34324866 
   78200    271.64287   -144.40604    125456.89   -43641.923    3315.7862   -46957.709    0.3081725 
   78400    270.81469    103.33861    125040.28   -43667.469    3305.6771   -46973.146    0.3826567 
   78600     278.4023    214.64486     124980.1   -43675.108    3398.2946   -47073.403   0.36949362 
   78800    273.99851   -65.996111    125307.85   -43656.615    3344.5401   -47001.155   0.32037104 
   79000    272.84618   -156.46678    125448.25   -43649.749    3330.4743   -46980.223    0.3612247 
   79200    272.85334    18.954714    125193.39   -43652.613    3330.5616   -46983.175   0.36689595 
   79400    275.47107    155.74414    124981.47   -43610.751    3362.5147   -46973.266    0.3279742 
   79600    274.14032    41.660222    125156.08   -43608.396    3346.2711   -46954.667   0.37345301 
   79800    272.93609   -130.88363    125405.92   -43627.174    3331.5717   -46958.746   0.36820104 
   80000    277.19682   -72.647358    125376.52   -43607.484      3383.58   -46991.064   0.32097009 
   80200    279.57281    74.466711     125166.6   -43567.637    3412.5823   -46980.219   0.36299254 
   80400     280.2761    90.351834    125124.17   -43555.203    3421.1671    -46976.37    0.3844828 
   80600    275.46904   -36.965112    125283.64   -43572.021      3362.49   -46934.511   0.33140535 
   80800    275.49903   -91.938895    125380.47   -43525.112    3362.8561   -46887.968   0.35298063 
   81000    274.05976   -22.485115    125269.04   -43574.737    3345.2878   -46920.024   0.37801208 
   81200    278.71972    111.98586    125121.26   -43556.277    3402.1692   -46958.446   0.33684103 
   81400    273.83244    60.222927    125185.57    -43529.78    3342.5129   -46872.293   0.35143621 
   81600    279.31651   -79.743038    125400.95    -43546.08    3409.4538   -46955.534   0.37621308 
   81800    276.50755   -103.52897     125412.6   -43551.981    3375.1665   -46927.148   0.33669368 
   82000    281.88375    54.787428    125177.88   -43525.518    3440.7906   -46966.309   0.35453194 
   82200    276.16331    129.33293    125096.37   -43566.759    3370.9646   -46937.723   0.38042052 
   82400    269.45949    -51.95006    125264.73   -43574.773    3289.1349   -46863.908   0.33992643 
   82600    269.41377   -118.14244    125385.85   -43598.697    3288.5769   -46887.274   0.34479668 
   82800    268.69518   -25.773438    125242.17   -43635.722    3279.8054   -46915.527   0.38550478 
   83000    277.88839    94.320908    125049.06   -43624.325    3392.0216   -47016.347   0.35239478 
   83200    277.12007     50.48497    125134.69   -43639.222    3382.6432   -47021.866   0.34817554 
   83400    272.46523   -98.575728     125389.9   -43661.993    3325.8243   -46987.818   0.36772401 
   83600    272.72637   -128.92926    125361.46   -43673.425    3329.0119   -47002.436   0.34432868 
   83800    272.05349    94.440015    125053.42   -43624.474    3320.7984   -46945.272   0.35297908 
   84000    268.98471    134.49434    124973.96   -43648.187    3283.3396   -46931.526   0.39135632 
   84200    272.46086   -34.597509    125300.85   -43633.082    3325.7709   -46958.853   0.33760716 
   84400    274.49055    -145.1645     125541.3   -43649.081    3350.5462   -46999.627   0.32099932 
   84600    270.24736   -31.087036    125279.18   -43641.195     3298.752   -46939.947    0.3850461 
   84800    270.46327    212.60279    124893.79   -43656.839    3301.3875   -46958.226   0.38195805 
   85000    274.22721    165.84565    125043.05   -43621.008    3347.3317    -46968.34   0.33980993 
   85200    272.32658   -193.32586    125590.62   -43591.952    3324.1318   -46916.083   0.36168044 
   85400    275.44541   -233.54226    125649.51   -43575.424    3362.2016   -46937.625   0.34520827 
   85600    276.77261    170.93037    125101.85   -43583.994     3378.402   -46962.396   0.33571207 
   85800    274.70391    275.25277    124822.34   -43589.146    3353.1505   -46942.296   0.39402867 
   86000    273.72796    9.3427173    125291.75   -43555.956    3341.2377   -46897.193   0.36097014 
   86200    274.09888   -336.96609    125834.07   -43563.574    3345.7653   -46909.339   0.30850901 
   86400     272.8351   -163.07165    125474.32   -43560.345     3330.339   -46890.684   0.36046219 
   86600    282.26787    402.55124    124674.27    -43544.93    3445.4794   -46990.409   0.40751451 
   86800     274.9195    293.45722    124790.38   -43582.333    3355.7821   -46938.115   0.35848709 
   87000    279.65139   -298.12386    125746.07   -43597.881    3413.5416   -47011.423     0.327926 
   87200    274.06481   -454.47866    125997.78   -43573.112    3345.3494   -46918.461   0.32742424 
   87400    277.73219    158.08426    125047.07   -43548.437     3390.115   -46938.552   0.34993601 
   87600    276.02698    537.37956    124408.21   -43591.755    3369.3005   -46961.055   0.41024472 
   87800    273.23126    42.556861    125128.95    -43609.88    3335.1748   -46945.055   0.38336789 
   88000    276.71156   -463.86163    126041.99   -43568.158    3377.6568   -46945.815    0.2908654 
   88200    274.38677   -271.72706    125674.76   -43589.922    3349.2794   -46939.202   0.33705952 
   88400    275.18073    330.98035    124684.96   -43579.184    3358.9707   -46938.154   0.41373486 
   88600    280.27143    360.64503     124678.8   -43598.881      3421.11   -47019.991   0.35741938 
   88800    275.22381   -155.20599    125454.92   -43597.834    3359.4966   -46957.331   0.33248382 
   89000    272.60526   -264.53023     125706.4   -43608.069    3327.5336   -46935.603   0.34395188 
   89200      276.746    28.425902    125232.58   -43584.398    3378.0771   -46962.475    0.3355966 
   89400    276.71235    239.91814    124915.81   -43555.442    3377.6664   -46933.108   0.36895656 
   89600     273.8618     51.14666    125184.27   -43583.567    3342.8713   -46926.438   0.37954909 
   89800    281.23673   -149.05001    125547.61   -43601.575    3432.8929   -47034.468   0.31445541 
   90000    269.97687   -103.10493    125460.23   -43612.749    3295.4503     -46908.2   0.33088088 
   90200    274.49673     110.8845    125103.33   -43654.233    3350.6216   -47004.854   0.38112039 
   90400    276.73753    175.80423    125023.74    -43679.64    3377.9738   -47057.614   0.35506359 
   90600    269.29438    -63.23958    125311.39   -43666.149    3287.1195   -46953.269   0.33117549 
   90800    270.76444   -142.77603    125446.22   -43678.912    3305.0637   -46983.975   0.36035007 
   91000    269.74764   -27.276512    125226.81   -43677.702    3292.6523   -46970.354   0.34647111 
   91200    268.30259    112.88622    125008.24   -43689.761    3275.0133   -46964.774   0.35222853 
   91400    276.55253    67.529155     125147.3   -43684.842    3375.7156   -47060.558   0.37221139 
   91600    268.32936   -106.40252    125409.38   -43689.977    3275.3401   -46965.317   0.32835839 
   91800    276.28937   -102.69549    125376.32   -43666.601    3372.5033   -47039.104   0.32041137 
   92000    270.29358    62.813982     125104.4   -43679.532    3299.3161   -46978.848   0.38401456 
   92200    276.23175    123.33424    125013.61    -43697.97       3371.8    -47069.77   0.35933764 
   92400    269.26578   -39.690006    125236.13   -43657.241    3286.7704   -46944.011     0.333125 
   92600    268.95463   -138.08545    125428.79   -43706.706    3282.9725   -46989.679   0.36607042 
   92800    269.78148   -38.904079     125286.6   -43683.849    3293.0653   -46976.914   0.35615447 
   93000    275.04239    78.158183    125045.58   -43620.982    3357.2822   -46978.264   0.34288573 
   93200    270.49262     115.1825    125105.27   -43622.576    3301.7457   -46924.321    0.3826838 
   93400    274.60398   -76.488273    125359.65   -43622.028    3351.9307   -46973.959   0.34498016 
   93600    272.55124   -96.899451    125377.23   -43603.973    3326.8742   -46930.847   0.32072877 
   93800    272.02472    89.400799    125154.25   -43603.999    3320.4473   -46924.446   0.38053936 
   94000    275.76032    127.62759    125084.76   -43607.469    3366.0455   -46973.515   0.37029301 
   94200    272.71696   -21.557158    125273.55   -43677.233     3328.897    -47006.13   0.32249397 
   94400    273.29445   -120.23816    125381.25   -43662.638    3335.9461   -46998.584   0.35660697 
   94600    273.63428    22.260271    125206.78   -43656.165    3340.0942    -46996.26   0.35844304 
   94800    275.08617    136.10872     124995.7   -43706.838    3357.8165   -47064.654   0.33627085 
   95000    276.37909    102.94253    125082.19   -43714.932    3373.5985   -47088.531   0.37037776 
   95200    273.25372   -89.065971     125363.8   -43715.585    3335.4489   -47051.034   0.35533421 
   95400    269.51917   -174.76289    125392.76   -43730.143    3289.8635   -47020.007   0.31801537 
   95600    270.92731    104.02365    125074.09   -43691.473    3307.0518   -46998.524   0.36846246 
   95800    271.76776    136.37469    124944.99   -43661.583    3317.3106   -46978.893   0.38543431 
   96000    271.94165   -19.439783    125282.91   -43658.577    3319.4332    -46978.01   0.32162815 
   96200    270.75607   -238.77681    125569.03   -43683.951    3304.9615   -46988.913   0.33129438 
   96400    270.03744   -8.9089542    125268.64   -43679.065    3296.1896   -46975.255   0.36428197 
   96600    272.78835    238.23369    124789.01   -43690.625    3329.7684   -47020.393   0.35734097 
   96800    271.16778    125.38815    124921.64   -43740.366    3309.9871   -47050.353   0.37264261 
   97000    269.91577   -211.36715    125484.12   -43726.714    3294.7045   -47021.419   0.35643312 
   97200    273.34079   -202.60501     125549.1   -43715.709    3336.5117   -47052.221   0.30856709 
   97400    268.79814    103.49165    124969.52   -43675.714    3281.0622   -46956.776   0.36274065 
   97600    271.02144    319.18744    124681.62    -43651.26    3308.2007   -46959.461   0.41393275 
   97800    267.25117    9.4982621    125239.84   -43649.008    3262.1793   -46911.187   0.33937204 
   98000     271.1525   -358.26279    125779.33   -43621.708    3309.8005   -46931.509   0.31740723 
   98200    274.12275   -86.069912    125403.47   -43631.539    3346.0567   -46977.596   0.35495821 
   98400    273.18005    300.06276    124741.08   -43569.905    3334.5496   -46904.454   0.37801127 
   98600    269.98096    202.26599    124927.34   -43614.112    3295.5003   -46909.613   0.36807093 
   98800    269.61067   -243.37838    125679.11   -43580.823    3290.9804   -46871.804    0.3522915 
   99000    274.24153   -342.25607    125774.77   -43581.365    3347.5066   -46928.872   0.31009458 
   99200    272.37469    91.601666    125047.39   -43644.396    3324.7191   -46969.115   0.34310356 
   99400    272.26032    344.55797    124650.75   -43724.615    3323.3231   -47047.938   0.40430741 
   99600    268.15148    55.514074    125135.45   -43746.435    3273.1689   -47019.604   0.34659572 
   99800     271.6029      -304.91    125650.19   -43714.815    3315.2983   -47030.114   0.31820408 
  100000    271.13939   -147.46663    125404.02   -43721.053    3309.6405   -47030.694   0.35610466 
  100200    270.31611    189.92026    124873.05   -43686.337    3299.5912   -46985.929   0.36558592 
  100400    268.25883    185.34215    124886.39   -43669.394    3274.4792   -46943.873   0.36290568 
  100600    273.36482   -88.082322    125375.45   -43629.619    3336.8051   -46966.424   0.36402537 
  100800    268.80076   -212.30398    125521.69   -43656.255    3281.0942    -46937.35   0.33363029 
  101000    272.34617    42.366869    125162.05   -43648.859     3324.371    -46973.23   0.34070942 
  101200    275.57145    204.69503    124924.98   -43617.928    3363.7401   -46981.668   0.38985973 
  101400    270.44703    59.649439    125184.28   -43638.639    3301.1892   -46939.829    0.3527471 
  101600    275.05863   -112.36921    125477.83   -43646.512    3357.4804   -47003.993   0.31861818 
  101800    276.39286     -48.3346     125341.5   -43618.291    3373.7665   -46992.057    0.3666938 
  102000    271.36896    112.10812    125061.68   -43627.451    3312.4427   -46939.894   0.35631763 
  102200    279.73803    123.01687    125115.38   -43612.886    3414.5991   -47027.485    0.3339117 
  102400    276.22818   -74.170843    125365.94   -43567.135    3371.7564   -46938.891    0.3734936 
  102600    278.95774   -88.448658    125426.44   -43569.972    3405.0745   -46975.046   0.34150381 
  102800    281.12236   -5.4231862    125243.61    -43587.01    3431.4967   -47018.506   0.32828011 
  103000     278.5242    154.28823    125116.31   -43581.039    3399.7825   -46980.821   0.37936317 
  103200    272.06076    34.131055    125277.04   -43564.751    3320.8871   -46885.638   0.35531435 
  103400    275.74361    -87.35816    125461.51   -43591.533    3365.8416   -46957.375   0.32915402 
  103600    277.47835   -43.414149    125364.29    -43597.93    3387.0165   -46984.946    0.3574609 
  103800    275.12218    91.618949    125135.43   -43594.595    3358.2561   -46952.851   0.34950146 
  104000    276.87718    74.812124    125144.47   -43607.106    3379.6783   -46986.784   0.33806562 
  104200     273.8947   -45.957337    125381.45   -43615.564     3343.273   -46958.837   0.36268537 
  104400    273.47416    -134.6862    125439.67   -43634.452    3338.1397   -46972.592   0.34318491 
  104600    274.09195    71.293047    125201.61   -43625.146    3345.6807   -46970.827   0.33152986 
  104800    277.78522    159.83781    125059.78   -43620.839    3390.7623   -47011.601   0.37310253 
  105000    275.45632   -38.156934    125260.63   -43649.283    3362.3347   -47011.618   0.34977786 
  105200    280.84388   -98.714962    125462.79    -43647.23    3428.0975   -47075.327   0.31899457 
  105400    274.49568   -40.106506    125317.09   -43640.505    3350.6088   -46991.113   0.35683842 
  105600    272.73777    154.00732    125046.06   -43636.197     3329.151   -46965.348   0.36180435 
  105800    279.64245     78.10657    125111.11   -43655.988    3413.4324   -47069.421   0.33265513 
  106000    273.95169   -64.421902    125402.86   -43617.587    3343.9687   -46961.556   0.34342963 
  106200     274.4549     -148.816    125487.28   -43601.657     3350.111   -46951.768   0.33787422 
  106400    273.38461   -5.3066124    125219.45   -43629.243    3337.0466   -46966.289   0.33538571 
  106600    271.24211     153.6341    124982.01   -43630.169    3310.8943   -46941.063   0.36177774 
  106800     267.6971     46.65971    125165.63   -43625.115    3267.6225   -46892.737   0.36976099 
  107000    281.07859   -147.55379    125495.64   -43586.692    3430.9626   -47017.654   0.32840022 
  107200    274.84723   -135.29556    125430.85   -43575.157    3354.8999   -46930.057   0.32926374 
  107400    273.96823    137.00769    125083.89   -43581.652    3344.1705   -46925.823   0.36348529 
  107600    277.55417    178.64057    125047.47   -43562.462     3387.942   -46950.404   0.35202156 
  107800    279.30248   -94.712833    125435.38   -43582.714    3409.2826   -46991.997   0.32615776 
  108000     278.4176     -206.393    125626.63   -43559.741    3398.4813   -46958.223   0.33545932 
  108200    272.86166    25.639475    125213.27   -43589.246    3330.6633    -46919.91   0.34451024 
  108400    279.57885    270.86107    124815.68   -43588.341     3412.656   -47000.997   0.35389138 
  108600    273.73301    59.308108    125161.67   -43569.026    3341.2992   -46910.326   0.36242666 
  108800    276.51211   -247.37088    125733.54   -43582.674    3375.2221   -46957.896   0.32048363 
  109000    272.41109   -219.74838    125562.87   -43613.831    3325.1634   -46938.994    0.3260998 
  109200    272.70888    248.61375    124846.27   -43620.951    3328.7983    -46949.75   0.37848938 
  109400    272.72594    289.73031    124754.35   -43600.572    3329.0066   -46929.578   0.37517583 
  109600    273.30575   -161.47743    125493.21    -43569.84    3336.0841   -46905.924   0.32254947 
  109800    277.54496   -375.92635    125887.92   -43615.928    3387.8296   -47003.757   0.31042803 
  110000    280.87631    32.494862    125282.15    -43556.92    3428.4935   -46985.414   0.34152978 
  110200    270.85143    325.06506     124712.3   -43544.821    3306.1255   -46850.947    0.3721066 
  110400    277.71214     156.7406    125085.32   -43593.775    3389.8702   -46983.645    0.3516241 
  110600    271.33835   -290.42029    125715.86   -43660.106    3312.0691   -46972.176    0.3201684 
  110800    274.27919   -215.44057    125571.95   -43655.677    3347.9662   -47003.644   0.31986564 
  111000    270.50902     162.8733    124939.62   -43657.358    3301.9459   -46959.304    0.3685216 
  111200     274.0804    227.37948    124835.01   -43642.122    3345.5397   -46987.662   0.37530367 
  111400    269.52906   -84.864728    125305.29   -43688.756    3289.9842    -46978.74     0.337536 
  111600    271.33616   -229.43632     125528.1   -43729.342    3312.0424   -47041.385   0.33203738 
  111800    264.70824   -4.9622392    125225.52   -43757.859    3231.1393   -46988.998   0.35161876 
  112000    270.26198    167.79742     124942.6   -43759.264    3298.9304   -47058.194   0.34611614 
  112200    271.41051      81.9518    125067.75   -43715.836    3312.9499   -47028.785   0.35237268 
  112400    274.56666   -59.700766    125342.41   -43696.583    3351.4752   -47048.059   0.35008754 
  112600    272.70747   -57.859651    125351.95   -43672.608    3328.7811   -47001.389   0.33694307 
  112800    273.90809    14.129059    125164.28   -43689.794    3343.4364    -47033.23   0.35463902 
  113000    270.29205    72.157969    125090.08   -43670.307    3299.2975   -46969.605      0.36455 
  113200    269.22644    23.571568    125204.41   -43699.687    3286.2903   -46985.977    0.3387262 
  113400    269.58548   -55.299999    125281.75   -43682.017    3290.6728    -46972.69   0.34625784 
  113600    267.00991   -26.440119    125228.04   -43684.491    3259.2343   -46943.725   0.36917918 
  113800    271.11735     63.56639    125144.24   -43669.713    3309.3715   -46979.084   0.34734502 
  114000    275.60236    24.264988    125201.75   -43657.885    3364.1174   -47022.002   0.34575423 
  114200     269.1661   -47.929277    125320.78   -43668.647    3285.5537   -46954.201   0.35518964 
  114400    273.95875   -35.267325    125299.49   -43617.368    3344.0548   -46961.423   0.33763487 
  114600    274.24404    65.846592    125197.84   -43595.474    3347.5372   -46943.011   0.35647927 
  114800    273.26302    20.475734    125188.27   -43569.018    3335.5624   -46904.581    0.3680337 
  115000     275.0422   -59.986896     125277.9   -43590.104    3357.2798   -46947.383   0.34107909 
  115200    268.79668   -51.219635    125308.05   -43613.878    3281.0444   -46894.922     0.349255 
  115400    275.81942    6.2273004    125179.23   -43630.189    3366.7669   -46996.956   0.36724531 
  115600    278.38225     68.60896    125102.92   -43609.157    3398.0498   -47007.206   0.35158037 
  115800    271.37096   -3.7384476    125196.36   -43624.465    3312.4671   -46936.932   0.35087757 
  116000    276.78886   -26.334002    125284.04   -43615.518    3378.6003   -46994.118   0.36057538 
  116200    276.70246    -36.91038    125274.36   -43629.872    3377.5457   -47007.418   0.33857854 
  116400    273.73423   -18.080237    125182.34   -43674.798    3341.3142   -47016.112   0.34986636 
  116600     274.0935    69.625422    125116.27   -43691.016    3345.6996   -47036.715   0.36342583 
  116800    272.24504    13.256538    125166.97     -43642.2    3323.1365   -46965.336   0.34588447 
  117000    271.00793   -91.024294    125270.06   -43662.191    3308.0359   -46970.227   0.33732603 
  117200    268.91598   -77.249461    125229.39   -43658.342    3282.5006   -46940.843   0.36638131 
  117400    271.96693    2.9480874     125104.7   -43669.335    3319.7418   -46989.076   0.35847457 
  117600    274.18011    27.243325    125081.16   -43644.839    3346.7568   -46991.595   0.35566464 
  117800    276.33414    22.832687    125207.56   -43610.235    3373.0498   -46983.285   0.35682246 
  118000    277.88391   -68.272976    125334.62   -43600.155    3391.9669   -46992.122    0.3384135 
  118200    271.78374   -57.020482    125249.87    -43637.03    3317.5057   -46954.535     0.351717 
  118400    269.01733    89.959137    125055.69   -43669.432    3283.7378    -46953.17   0.37314978 
  118600    271.04366    33.723601    125092.43   -43693.919    3308.4719   -47002.391   0.35250219 
  118800      273.634   -68.499935    125271.75    -43729.62    3340.0908   -47069.711    0.3347157 
  119000    268.11633   -60.477656    125288.25   -43737.459    3272.7398   -47010.198   0.35044417 
  119200     267.6659    34.430072    125072.22   -43738.913    3267.2416   -47006.155   0.35899144 
  119400    266.09213    136.19151    124950.85    -43767.49    3248.0316   -47015.522   0.36031231 
  119600    272.56625   -13.352376    125177.49   -43713.745    3327.0573   -47040.802   0.35973389 
  119800    272.20352   -114.11618    125427.71   -43706.206    3322.6298   -47028.836   0.33764157 
  120000    269.72265   -78.133397    125313.85   -43731.437    3292.3472   -47023.784   0.34097899 
  120200    269.85753    117.83653    124992.99   -43707.537    3293.9936    -47001.53   0.36923853 
  120400    271.36419    112.52257    124988.69   -43742.167    3312.3846   -47054.551   0.36258128 
  120600    273.03213   -88.768634    125343.33   -43729.635    3332.7441   -47062.379   0.32978077 
  120800    271.42955   -166.75751    125491.36   -43728.619    3313.1823   -47041.802   0.33044686 
  121000    270.96433    41.468626    125181.53   -43716.979    3307.5037   -47024.483   0.35600474 
  121200    270.24531    170.96462       124902   -43725.178     3298.727   -47023.905    0.3631518 
  121400    273.22471    59.723995    125126.08   -43718.649    3335.0948   -47053.743   0.35179375 
  121600    267.28954   -217.77453     125467.5   -43708.305    3262.6477   -46970.953   0.34200575 
  121800    273.15162   -84.253362    125345.15   -43705.156    3334.2026   -47039.359   0.33511142 
  122000    263.60935    132.92446    124908.09    -43686.31    3217.7257   -46904.036   0.37600903 
  122200    274.07741    197.94317    124882.82   -43662.674    3345.5031   -47008.177    0.3863358 
  122400    274.59596   -114.55481    125368.12   -43623.925    3351.8328   -46975.758    0.3315833 
  122600    273.40676   -217.32255    125619.73   -43547.062     3337.317   -46884.379   0.32765782 
  122800    278.35139    19.005532     125254.2   -43545.099    3397.6732   -46942.772   0.36361556 
  123000    274.05211    270.16368    124857.75   -43578.504    3345.1944   -46923.698   0.37584461 
  123200    275.97311    64.707852    125061.16   -43602.542    3368.6429   -46971.185   0.37029601 
  123400    272.18817   -175.99657    125502.11   -43677.102    3322.4424   -46999.544   0.34082037 
  123600      274.786    -166.7334    125422.78   -43637.678    3354.1526    -46991.83   0.33226146 
  123800    273.28402    122.17266    124934.08   -43648.778    3335.8187   -46984.597   0.37275701 
  124000    272.55055    223.02498    124864.05   -43630.855    3326.8657    -46957.72   0.38044492 
  124200    269.03515   -84.042486    125356.48   -43621.958    3283.9553   -46905.913   0.34562215 
  124400    271.40737   -241.57215    125617.11   -43640.118    3312.9116   -46953.029   0.32240693 
  124600    273.65795   -25.017517    125244.81   -43653.287     3340.383    -46993.67   0.35695732 
  124800    269.09778    239.37914    124863.23   -43659.839    3284.7198   -46944.559   0.37417742 
  125000    271.36487    115.54441    125103.95   -43674.015    3312.3928   -46986.407   0.35889033 
  125200    273.21277   -179.63066     125580.7   -43663.391    3334.9491    -46998.34   0.33574034 
  125400    269.02229   -183.46342    125509.73   -43710.973    3283.7983   -46994.771   0.33432851 
  125600     271.0832    132.51013    124964.64    -43721.25    3308.9546   -47030.205   0.36245514 
  125800    269.91502    252.48099    124825.08   -43697.621    3294.6953   -46992.317   0.38855088 
  126000    271.78274   -48.913918    125282.73   -43685.958    3317.4935   -47003.451   0.33941516 
  126200    271.40314   -208.96755     125565.9   -43658.677      3312.86   -46971.537   0.33043773 
  126400    271.91042   -82.367465    125243.24   -43687.585     3319.052   -47006.637   0.35963393 
  126600    268.06603    215.23951    124820.74   -43694.515    3272.1257   -46966.641   0.38413604 
  126800    271.13595    126.08381    124963.89   -43677.951    3309.5985   -46987.549   0.38217308 
  127000    268.83767   -146.19111    125375.25   -43696.602    3281.5447   -46978.146   0.35060994 
  127200    266.18991   -115.57638    125376.71   -43726.315    3249.2251    -46975.54   0.33233449 
  127400     269.5458    35.328338    125035.63   -43719.578    3290.1884   -47009.767   0.36954411 
  127600    271.51967    158.09966    124940.44   -43716.866    3314.2823   -47031.148   0.37781066 
  127800    269.05926    12.762524     125210.3   -43718.701    3284.2496    -47002.95   0.34798803 
  128000    269.57372   -118.79875    125407.32    -43697.77    3290.5292   -46988.299    0.3340714 
  128200    272.18267   -73.713536    125267.46   -43668.062    3322.3752   -46990.437   0.35383016 
  128400    270.57356    87.143503    125047.05   -43698.927    3302.7338    -47001.66   0.36193587 
  128600    272.91231    71.970363    125069.29   -43716.616    3331.2815   -47047.898   0.36886327 
  128800    265.31659   -53.954356    125260.71   -43770.444     3238.565   -47009.009   0.35734687 
  129000    268.52467   -76.930829    125319.02   -43787.837    3277.7241   -47065.561   0.33721329 
  129200    272.72138    22.213076    125181.92   -43768.632     3328.951   -47097.582   0.33989376 
  129400    265.82443    81.808372    125084.16   -43759.301    3244.7638   -47004.065   0.35989451 
  129600    269.68422   -7.4710048    125138.14   -43744.598    3291.8781   -47036.476   0.36023334 
  129800    273.68812   -31.862701    125192.39   -43754.236    3340.7513   -47094.987   0.34584496 
  130000    267.81527  0.022010553    125136.55   -43774.617    3269.0649   -47043.682   0.36565839 
  130200    268.44691    69.247201    125067.21   -43775.954     3276.775   -47052.729   0.35826172 
  130400    270.37236    66.376739    125115.63   -43772.718    3300.2779   -47072.996   0.35299008 
  130600    272.10842   -26.581554     125219.6   -43732.306    3321.4689   -47053.775   0.35806784 
  130800     270.6169   -41.782122    125217.65    -43750.42    3303.2628   -47053.683   0.35096269 
  131000    270.18108   -1.8861325    125117.01   -43772.924     3297.943   -47070.867   0.34139951 
  131200    270.38956    68.010514    125072.55   -43742.903    3300.4878   -47043.391    0.3614461 
  131400    264.92215   -25.434179    125163.13   -43751.853    3233.7503   -46985.603   0.36263992 
  131600    270.89846   -61.173639    125230.06   -43739.108    3306.6996   -47045.807   0.34285141 
  131800    269.79558     -3.39959     125140.3   -43716.166    3293.2373   -47009.403   0.36007866 
  132000    274.77279    79.625284    125041.61   -43671.702    3353.9913   -47025.693   0.36435687 
  132200    270.82937   -2.5091006    125127.74   -43689.691    3305.8563   -46995.547   0.35614901 
  132400    277.66296   -8.1727359    125251.11   -43696.187    3389.2699   -47085.457   0.35040042 
  132600    270.88275   -60.285633    125211.66   -43658.708    3306.5079   -46965.216   0.36719642 
  132800    274.92853    91.416574    125088.01    -43638.06    3355.8923   -46993.952   0.33933559 
  133000    278.29798     60.01866    125150.59   -43626.983    3397.0212   -47024.004   0.34773219 
  133200     274.4886   -71.751742    125375.54   -43601.437    3350.5223    -46951.96   0.35183327 
  133400     276.6785   -86.668399    125426.25   -43579.347    3377.2532   -46956.601   0.33108648 
  133600    272.57456    3.9133624    125194.63   -43583.179    3327.1588   -46910.338   0.35562405 
  133800    273.14347    169.34056    124988.35   -43608.365    3334.1031   -46942.468   0.37246374 
  134000    275.66898     24.59618    125173.85   -43566.013    3364.9306   -46930.944   0.34573902 
  134200    272.62871   -206.03606    125541.02   -43576.279    3327.8197   -46904.098    0.3422734 
  134400    274.55031   -145.98708    125461.92   -43566.234    3351.2756   -46917.509   0.34509114 
  134600    272.50188    144.23242    124965.21   -43587.436    3326.2716   -46913.708   0.35765579 
  134800    273.90669    309.81473    124834.41   -43617.735    3343.4194   -46961.155   0.36663875 
  135000    271.19142   -90.687679     125365.7   -43684.865    3310.2756    -46995.14   0.34662419 
  135200    271.57796   -283.49207    125699.28   -43667.508    3314.9939   -46982.502   0.32043103 
  135400    275.86753    12.837188    125278.62   -43683.177    3367.3541   -47050.531   0.34278705 
  135600    271.76388    248.85351    124748.04   -43658.071    3317.2633   -46975.334   0.38614213 
  135800     272.3517    149.25959    124950.53   -43729.111    3324.4385   -47053.549   0.35824146 
  136000    269.36251   -203.19165    125526.75   -43751.233    3287.9512   -47039.184   0.33168268 
  136200    270.99832   -245.52233    125532.63    -43746.82    3307.9186   -47054.738   0.33695627 
  136400    271.78126    119.40909    124981.43   -43717.961    3317.4754   -47035.436   0.35678069 
  136600    272.36604    292.34358    124796.18   -43665.393    3324.6135   -46990.006   0.37431407 
  136800    273.86232   -61.782921    125300.98   -43678.487    3342.8778   -47021.365   0.34836435 
  137000     274.4665   -267.36504    125674.57   -43684.265    3350.2526   -47034.517   0.32162367 
  137200    265.71184   -84.029079    125315.55   -43707.478    3243.3895   -46950.868   0.34353399 
  137400    273.22037    259.65299    124809.58   -43675.536    3335.0418   -47010.578   0.38511767 
  137600    272.75727    132.74641    124988.91   -43668.768     3329.389   -46998.157    0.3591611 
  137800    273.73173   -192.53645    125549.47   -43635.375    3341.2837   -46976.658   0.32923934 
  138000    265.63321   -208.99307       125567   -43654.937    3242.4298   -46897.367   0.34658316 
  138200    267.39504    62.673227    125048.31   -43693.402    3263.9353   -46957.337   0.35447236 
  138400    271.96953    258.52159    124806.42   -43672.666    3319.7736   -46992.439   0.36534212 
  138600    266.10047    12.517228    125192.93   -43688.669    3248.1334   -46936.803   0.36312316 
  138800    275.72405   -230.06063    125581.42    -43625.92    3365.6028   -46991.523   0.32778371 
  139000    270.86129   -123.64423    125400.26   -43635.124    3306.2459    -46941.37   0.33006221 
  139200    272.28719     160.3685    124984.51   -43632.425     3323.651   -46956.076   0.37245167 
  139400    271.75767    156.35506    124995.83   -43659.468    3317.1875   -46976.656   0.36466609 
  139600    273.30726   -49.712993    125371.02   -43643.789    3336.1024   -46979.891   0.33415917 
  139800    277.06583    -127.0712    125485.47   -43602.005    3381.9811   -46983.986   0.34015956 
  140000    274.77076    15.746441    125200.18   -43584.062    3353.9665   -46938.029   0.35870573 
  140200    272.42489    127.62812    124993.69   -43614.499    3325.3318   -46939.831   0.35495861 
  140400     273.5944    52.568308    125161.79   -43640.152    3339.6074   -46979.759   0.35339668 
  140600    277.44242    -125.3384    125436.95   -43642.189    3386.5779   -47028.766   0.33966829 
  140800    275.85403   -68.436532    125372.38   -43634.673    3367.1894   -47001.862    0.3319042 
  141000    269.44573    88.057634    125082.06   -43671.523    3288.9669    -46960.49   0.35836441 
  141200     272.2116    103.29177    125023.97   -43631.734    3322.7284   -46954.463   0.37087428 
  141400      275.614    3.2748059    125280.21   -43625.267    3364.2594   -46989.526   0.34505074 
  141600    273.74986   -98.231012    125430.86   -43606.626    3341.5049   -46948.131   0.33703183 
  141800    273.59084    -7.542957    125220.78   -43664.842    3339.5639   -47004.406   0.35239351 
  142000    274.39763    150.65187    124988.46   -43664.748     3349.412    -47014.16   0.35467731 
  142200    273.32026    45.333223    125114.86   -43680.191    3336.2611   -47016.453   0.35160415 
  142400    271.29232   -104.67645    125361.85   -43676.669    3311.5072   -46988.176   0.35005769 
  142600    271.47655   -92.488657    125317.77   -43648.401     3313.756   -46962.157   0.35416815 
  142800     279.3836    71.302321    125110.45   -43671.576    3410.2728   -47081.849   0.34739494 
  143000     270.8156    68.825488    125097.74   -43699.841    3305.6881    -47005.53   0.35883387 
  143200    268.74229    -16.25359       125235     -43690.4    3280.3805    -46970.78   0.34550678 
  143400     272.7264   -35.685825    125305.23   -43669.371    3329.0122   -46998.383   0.33696444 
  143600    272.38239     17.80154    125240.44   -43649.198    3324.8131   -46974.011   0.35346283 
  143800    267.97051     81.41196    125149.33   -43654.029    3270.9598   -46924.988   0.35215291 
  144000    275.37198    56.945658    125144.13   -43638.844    3361.3053   -47000.149   0.34410034 
  144200    272.17574    6.2754519    125241.09   -43618.603    3322.2906   -46940.893   0.35697883 
  144400    275.96938   -49.929043    125292.85   -43614.944    3368.5973   -46983.541   0.34774479 
  144600    276.31486    16.520597    125220.47   -43595.588    3372.8145   -46968.403   0.34193941 
  144800    273.26281    21.856051    125184.02   -43579.884    3335.5598   -46915.444   0.36589743 
  145000    270.69166   -23.705119       125236   -43618.749    3304.1753   -46922.924   0.35133682 
  145200    272.05729   -32.275709    125253.08   -43645.868    3320.8448   -46966.713   0.34253168 
  145400    270.92623    13.719147    125195.37   -43642.122    3307.0386   -46949.161   0.36210918 
  145600    272.16474    2.7938017    125147.04   -43663.103    3322.1563   -46985.259   0.35795668 
  145800    273.49457    -8.341902    125133.65   -43681.058    3338.3888   -47019.447   0.35126853 
  146000    276.88513    13.866107    125138.68   -43662.011    3379.7754   -47041.786   0.36248051 
  146200    275.69241     28.53501    125161.09   -43691.588    3365.2165   -47056.804   0.35436479 
  146400     268.3044   -29.824636    125159.92   -43647.543    3275.0354   -46922.578   0.35610973 
  146600    272.09438   -28.419063    125152.93     -43602.5    3321.2975   -46923.797   0.36449558 
  146800    275.40411   -6.4467952    125188.96   -43568.825    3361.6974   -46930.522   0.35939464 
  147000    272.47916   -20.293659    125214.25   -43568.198    3325.9943   -46894.193   0.34976247 
  147200     278.4061    2.9114481    125191.74   -43545.962     3398.341   -46944.303   0.35521003 
  147400    272.20834    40.524996    125151.73   -43594.384    3322.6885   -46917.072   0.35865704 
  147600    277.55827    17.614809    125178.39   -43621.099    3387.9921   -47009.091   0.34682839 
  147800    267.05432   -57.380099    125217.27   -43658.989    3259.7764   -46918.766   0.35094092 
  148000    275.65669     3.668921     125197.5   -43628.407    3364.7806   -46993.188   0.35847918 
  148200    272.62582    -11.66719    125162.63   -43677.114    3327.7845   -47004.899   0.35522508 
  148400    271.10919    -18.57117    125170.06   -43698.016    3309.2719   -47007.288   0.35680132 
  148600     273.8428    1.1575186    125199.01   -43671.237    3342.6394   -47013.876   0.35229627 
  148800    274.77572    1.3102277     125219.3   -43684.092     3354.027   -47038.119    0.3482978 
  149000    269.22549   -6.8884399    125193.31   -43690.726    3286.2787   -46977.005   0.35107767 
  149200    277.85225    43.146355    125140.06   -43710.265    3391.5805   -47101.845   0.35330746 
  149400    265.69245   -2.3671908    125168.63   -43728.601    3243.1529   -46971.754    0.3502049 
  149600    271.40154   -36.030965    125249.16    -43710.53    3312.8404    -47023.37    0.3395795 
  149800     270.2033   -4.8698126     125217.4   -43723.148    3298.2142   -47021.363    0.3493561 
  150000    270.96275    65.258239    125084.44   -43669.884    3307.4843   -46977.368   0.36014534 
  150200    273.44995    20.423952    125104.93    -43619.38    3337.8441   -46957.224   0.35148444 
  150400    275.09242   -49.257152    125306.37    -43620.68    3357.8928   -46978.573   0.35089696 
  150600    274.12683   -102.35726    125408.69   -43631.114    3346.1065   -46977.221   0.34009401 
  150800    273.17941   -19.878887    125225.16    -43622.93    3334.5418   -46957.471   0.34528503 
  151000    274.56744    107.17427    125029.98   -43648.515    3351.4847   -46999.999    0.3708633 
  151200    270.09926    48.788565    125131.66    -43635.57    3296.9443   -46932.514   0.36388717 
  151400    273.90241   -78.092183    125364.84   -43566.733    3343.3671     -46910.1   0.33398146 
  151600    272.91825   -101.18716    125408.04   -43550.373     3331.354   -46881.727   0.34894158 
  151800    275.53617    37.134821    125211.14   -43521.304    3363.3094   -46884.613   0.36678262 
  152000    277.97045    93.528292    125069.82   -43544.922    3393.0232   -46937.946    0.3589656 
  152200    280.49008    7.4192153    125210.94   -43565.074    3423.7789   -46988.853   0.35680551 
  152400    273.02044   -123.35946    125428.86   -43600.401    3332.6014   -46933.003   0.34958201 
  152600    275.76727   -34.704522    125326.14   -43590.386    3366.1303   -46956.517   0.33883018 
  152800    275.87284    112.09236    125080.51   -43534.848    3367.4189   -46902.267   0.36561854 
  153000    272.99411    35.353797    125132.68   -43582.239    3332.2799   -46914.518   0.36977458 
  153200    276.76276   -134.67105    125401.22   -43529.207    3378.2817   -46907.489   0.33443059 
  153400    275.49825   -152.18347    125410.11   -43571.933    3362.8465    -46934.78   0.34359035 
  153600    270.79838     102.7138    125095.01   -43608.799     3305.478   -46914.277   0.37609983 
  153800    278.82496    225.71235    124971.39   -43615.863    3403.4537   -47019.317   0.35860392 
  154000    268.70532   -83.517215    125263.11   -43646.753    3279.9292   -46926.682   0.35058451 
  154200    276.58556   -173.37025    125477.57   -43603.052    3376.1188    -46979.17   0.34842684 
  154400    273.72344   -19.662618    125245.71   -43585.296    3341.1824   -46926.478   0.34641973 
  154600    273.69217    235.22506    124915.66   -43603.092    3340.8008   -46943.893   0.37143206 
  154800    275.43107    90.795108    125085.45   -43634.681    3362.0266   -46996.707   0.36391262 
  155000    278.40509   -204.39791    125532.81   -43610.463    3398.3286   -47008.791   0.32965801 
[...]
  163000    270.54927    69.574659    125088.66   -43683.095    3302.4373   -46985.532   0.35538022 
  163200    273.00593   -56.733991       125300    -43674.52    3332.4242   -47006.944   0.34574216 
  163400    269.28362   -91.256515    125312.12   -43699.852    3286.9882    -46986.84    0.3537616 
  163600    269.65694    43.269707    125093.85   -43668.645    3291.5451    -46960.19   0.36198834 
  163800     271.7151    113.13465    124989.37   -43725.434    3316.6679   -47042.102   0.36322567 
  164000    266.86917   -1.2530066    125152.32   -43719.961    3257.5164   -46977.477   0.36682162 
  164200    275.28055   -123.66021    125319.83   -43730.556    3360.1892   -47090.745   0.34447374 
  164400     267.6442   -16.569094    125210.91   -43688.376    3266.9768   -46955.353   0.35561526 
  164600    274.83802    93.585922    125058.39   -43656.293    3354.7876    -47011.08   0.36200178 
  164800    273.05802    80.938049    125167.54   -43700.093    3333.0602   -47033.153   0.35051005 
  165000    271.77615   -133.97266    125371.97   -43688.305    3317.4131   -47005.718    0.3464393 
  165200    273.06984   -104.14103    125318.85   -43675.331    3333.2044   -47008.536   0.35205333 
  165400    269.15863    91.169024    125038.18   -43688.352    3285.4625   -46973.815   0.35953432 
  165600    272.47864    148.01105     124973.1   -43647.099     3325.988   -46973.087    0.3672687 
  165800    273.37402    2.2462129    125287.03   -43651.177    3336.9173   -46988.095   0.34778194 
  166000    271.57304   -171.54147    125479.74   -43617.445    3314.9338   -46932.378   0.34018984 
  166200    273.63921   -35.462252    125230.06   -43658.288    3340.1544   -46998.442   0.34884361 
  166400    269.90331    171.02182    124913.16   -43650.732    3294.5524   -46945.284   0.36840183 
  166600    271.44898      137.911    125060.76   -43650.551    3313.4194   -46963.971   0.35792678 
  166800    266.38767    -147.6651    125451.19   -43710.559     3251.639   -46962.198   0.34197533 
  167000    272.78576   -125.59221    125439.66   -43700.514    3329.7368   -47030.251   0.32960192 
  167200    272.52973     142.4787    125038.96   -43667.214    3326.6116   -46993.826   0.36118665 
  167400    269.01394    176.16097    124920.37   -43691.836    3283.6964   -46975.533   0.37521186 
  167600    267.12487   -37.786422    125294.81    -43689.52    3260.6376   -46950.157   0.34287582 
  167800    266.05377   -238.21562     125578.7   -43730.525    3247.5633   -46978.088    0.3326236 
  168000    270.42025   -27.917691    125268.86   -43743.755    3300.8624   -47044.617   0.35303463 
  168200    272.99796     229.0593    124873.75   -43732.995     3332.327   -47065.322   0.36153349 
  168400    271.36916    108.04639    125052.37   -43714.195    3312.4452   -47026.641   0.35467317 
  168600     269.0146   -185.38179    125541.86   -43673.978    3283.7045   -46957.683   0.34389968 
  168800    270.89765    -184.3583    125519.58   -43734.829    3306.6897   -47041.519   0.32560079 
  169000    273.92084    179.69498    124980.48   -43726.839     3343.592   -47070.431   0.35429704 
  169200     265.3886    250.17444    124806.53   -43709.593    3239.4439   -46949.037   0.38277969 
  169400    268.72748   -85.267596    125311.14   -43725.706    3280.1997   -47005.906   0.33918013 
  169600    269.08343   -288.29486    125681.46   -43736.403    3284.5446   -47020.948   0.32386839 
  169800    266.52264   -62.149496    125260.15   -43734.345    3253.2865   -46987.632   0.35536232 
  170000    270.22088    299.25815    124655.75   -43769.791    3298.4288    -47068.22    0.3778829 
  170200      271.771     153.0408    124856.56   -43777.349    3317.3503     -47094.7   0.35851989 
  170400    266.26083   -256.72994    125610.74   -43765.924    3250.0908   -47016.015   0.32889694 
  170600    270.20581   -344.51555    125739.28   -43739.691    3298.2448   -47037.936   0.31434072 
  170800     268.9469    109.17102    124955.81   -43770.118    3282.8781   -47052.996   0.35913986 
  171000    272.84881    410.83631    124505.32   -43753.976    3330.5064   -47084.483   0.40394212 
  171200    270.63395    10.917157    125178.35   -43775.707    3303.4708   -47079.178   0.35266614 
  171400    268.18529   -440.47494    125895.71    -43775.53    3273.5815   -47049.111   0.31004519 
  171600    271.38625   -187.58519    125459.89   -43749.416    3312.6538    -47062.07    0.3423937 
  171800     273.5527    420.29189    124607.14   -43721.387    3339.0983   -47060.486   0.37523255 
  172000    266.21838    287.09847    124740.93   -43725.784    3249.5726   -46975.357   0.37592424 
  172200     268.2196   -235.98206    125541.34   -43756.025    3274.0003   -47030.025   0.33436997 
  172400    267.94797   -308.02853    125681.76   -43728.815    3270.6847     -46999.5   0.32424653 
  172600    272.45076    46.263776    125065.82   -43698.168    3325.6477   -47023.815   0.35276666 
  172800    272.06099    273.94358     124768.2    -43705.65    3320.8899    -47026.54   0.37800184 
  173000    273.13704     45.05827    125172.59   -43716.603    3334.0247   -47050.627    0.3529118 
  173200    268.52303   -231.30582    125537.72    -43746.45    3277.7041   -47024.154   0.32792395 
  173400    270.75899   -37.697241    125338.04   -43748.449    3304.9971   -47053.447   0.33892866 
  173600    274.12395    141.24404    124956.15    -43704.82    3346.0713   -47050.891   0.36380167 
  173800    269.71377    151.06667    124965.62    -43696.82    3292.2388   -46989.059   0.36252768 
  174000    271.76844   -56.908869    125307.67   -43665.464     3317.319   -46982.783   0.33665391 
  174200    275.60414   -147.83684    125456.53   -43653.586    3364.1391   -47017.725    0.3398438 
  174400    274.52647   -49.805086    125239.87   -43643.273    3350.9846   -46994.257   0.35010526 
  174600    268.07447    107.36929    125058.09   -43646.594    3272.2288   -46918.823   0.36584865 
  174800      271.296    27.967624    125172.09   -43631.509    3311.5521   -46943.061   0.35878868 
  175000    270.96433   -111.26173    125385.57   -43659.849    3307.5037   -46967.353   0.33501385 
  175200    272.54594   -64.383542    125305.99   -43661.615    3326.8095   -46988.424    0.3416255 
  175400     272.5766    103.62728    125041.77   -43676.221    3327.1837   -47003.405   0.36417818 
  175600    268.06924    105.33878     125043.7   -43684.554     3272.165   -46956.719   0.35649987 
  175800    275.53863   -58.213811    125306.68   -43659.217    3363.3395   -47022.557   0.33841694 
  176000    275.49879   -97.331523     125409.8   -43665.502    3362.8532   -47028.355   0.34615797 
  176200    272.85125    35.943307    125211.83   -43616.333    3330.5362   -46946.869   0.34751871 
  176400     276.6179    105.52423    125044.94   -43630.995    3376.5135   -47007.508   0.35655629 
  176600    273.64262      25.3549    125135.35   -43620.336     3340.196   -46960.532   0.36659436 
  176800     272.0642    -33.13711    125325.14   -43639.481    3320.9291    -46960.41   0.33800017 
  177000     273.2304   -74.696297    125359.54   -43631.718    3335.1642   -46966.882   0.33524833 
  177200    269.34712    8.1426217    125196.44   -43663.511    3287.7633   -46951.274   0.36352565 
  177400    267.01052    59.871211    125074.26   -43721.313    3259.2418   -46980.555   0.35340923 
  177600    268.24326    33.785878    125142.87   -43714.353    3274.2892   -46988.642   0.34771794 
  177800    271.14011   -28.313708    125273.27   -43679.389    3309.6493   -46989.038   0.35385173 
  178000    271.07167  -0.67519079    125287.95   -43656.441    3308.8139   -46965.255   0.34843926 
  178200    269.66003    15.146738       125176   -43662.571    3291.5828   -46954.154   0.35197001 
  178400    271.51991    54.065189    125106.84   -43672.562    3314.2853   -46986.847   0.36929758 
  178600    272.34811   -5.3353049    125229.61   -43658.902    3324.3947   -46983.296   0.33914095 
  178800    271.37874   -119.26201    125345.26   -43646.571    3312.5621   -46959.133   0.33599347 
  179000    271.57134   -42.958456    125226.01   -43613.822     3314.913   -46928.735   0.37395169 
  179200    270.02317    55.029372    125041.87   -43641.443    3296.0155   -46937.458    0.3686635 
  179400    269.15639     64.00315    125123.16    -43629.79    3285.4352   -46915.225   0.35066116 
  179600    271.54872   -98.475781    125375.32   -43633.509     3314.637   -46948.146   0.35771416 
  179800    272.30717   -88.159927    125378.82   -43647.128     3323.895   -46971.023   0.34084437 
  180000    275.38972    113.29063    125079.51   -43633.103    3361.5218   -46994.624   0.35454507 
  180200    275.05163    159.30759    124974.37   -43587.591     3357.395   -46944.986   0.38952302 
  180400     277.6491   -54.683335    125344.56    -43566.42    3389.1007    -46955.52   0.34311461 
  180600    269.47634   -242.75159    125639.92   -43607.808    3289.3406   -46897.148   0.32520285 
  180800    273.38834   -40.004226    125281.08   -43602.219    3337.0921   -46939.311   0.35707999 
  181000    274.71178    269.15361    124789.98    -43636.85    3353.2466   -46990.097   0.37307917 
  181200    270.16261    91.900827    124999.56   -43623.305    3297.7175   -46921.023   0.36575071 
  181400    275.48002   -221.47298    125608.22   -43659.386    3362.6241    -47022.01   0.33501193 
  181600     272.1117   -240.85351    125609.73   -43673.937    3321.5089   -46995.446   0.32652942 
  181800    273.65118    196.39007    124955.24   -43668.457    3340.3005   -47008.757   0.36346676 
  182000    275.54611    324.48389    124709.35    -43647.41    3363.4308   -47010.841   0.39624779 
  182200    275.79146   -24.059638    125297.22   -43660.185    3366.4257   -47026.611   0.33921753 
  182400    272.84878   -290.12033    125742.39   -43664.467     3330.506   -46994.973   0.30809848 
  182600    271.87099   -74.899041    125349.43   -43644.261    3318.5707   -46962.832   0.35153058 
  182800    272.48346    257.95228    124792.66   -43618.832    3326.0467   -46944.879   0.38247213 
  183000    277.79387    179.33849    124980.93   -43594.866    3390.8678   -46985.734   0.35357353 
  183200    276.81122   -219.83413    125589.87    -43585.87    3378.8732   -46964.743   0.33969958 
  183400    272.38427    -248.7611    125648.87   -43591.688    3324.8361   -46916.524   0.33415086 
  183600    271.09256    42.201154    125065.59   -43626.404    3309.0689   -46935.473   0.35963323 
  183800    276.31407    295.32462    124773.16   -43636.638    3372.8047   -47009.443   0.38576251 
  184000    266.77093   -24.752006    125200.31   -43665.207    3256.3172   -46921.525   0.36037429 
  184200    271.56951   -227.43965    125590.66   -43701.958    3314.8908   -47016.849   0.31846183 
  184400    271.24964   -97.741961    125294.89   -43687.164    3310.9862    -46998.15   0.34579993 
  184600    272.91858    233.83414    124803.46   -43712.948     3331.358   -47044.306   0.38053614 
  184800    271.65882    172.10584    124903.89   -43696.343    3315.9809   -47012.324   0.35923604 
  185000    276.33545   -157.26051    125431.56   -43695.875    3373.0657   -47068.941   0.33107133 
  185200    267.59097   -205.16237    125559.52   -43734.874     3266.327   -47001.201   0.33390921 
  185400    271.34581    47.204129    125118.55   -43715.641    3312.1601   -47027.801   0.33692929 
  185600    274.62234     242.7497    124848.03   -43723.854    3352.1549   -47076.009   0.37086949 
  185800    272.83812    16.325969    125160.68   -43684.855    3330.3759   -47015.231    0.3597564 
  186000    273.70047   -178.71652    125540.56   -43678.403    3340.9021   -47019.305   0.31431654 
  186200    267.84026    -131.8019    125365.46   -43659.443    3269.3699   -46928.813   0.34267999 
  186400    270.05591    188.56119    124947.36   -43626.674    3296.4151   -46923.089   0.38115117 
  186600     271.1484    147.18104     124976.3   -43639.648    3309.7505   -46949.398   0.36010729 
  186800    273.90173   -79.358597    125388.35   -43664.968    3343.3588   -47008.327   0.33541601 
  187000    273.11975   -144.46033    125522.67   -43627.986    3333.8136     -46961.8   0.33679373 
  187200    274.16391    24.691753    125177.25   -43658.981    3346.5591    -47005.54   0.34478628 
  187400    269.13541    161.70143    124915.57   -43642.761    3285.1791    -46927.94   0.37268175 
  187600    274.06357    43.814217    125152.59   -43683.011    3345.3342   -47028.346    0.3626363 
  187800    268.89306   -189.19109    125465.12   -43683.029    3282.2208   -46965.249   0.32983056 
  188000    274.62827   -77.904491    125351.42   -43655.167    3352.2273   -47007.394   0.33079376 
  188200     273.6407    135.67353    125043.17   -43630.372    3340.1725   -46970.544   0.36677333 
  188400    274.05431    89.293202    125058.19   -43620.358    3345.2213   -46965.579   0.35685909 
  188600      270.707   -109.42031    125343.84   -43628.968    3304.3625   -46933.331   0.34326066 
  188800    274.80162   -143.30662    125443.35   -43638.091    3354.3431   -46992.434   0.34159154 
  189000    275.13963    30.003103    125218.55   -43636.835    3358.4691   -46995.304    0.3405333 
  189200     271.9638     103.6859    125084.26   -43638.837    3319.7035   -46958.541   0.35518977 
  189400    276.21781    16.442752    125230.59   -43630.534    3371.6298   -47002.164   0.35750304 
  189600    274.97499   -82.210403    125407.91   -43624.162    3356.4594   -46980.621   0.33650602 
  189800    275.04202    -43.29601    125350.79     -43663.3    3357.2777   -47020.578    0.3224134 
  190000    273.68134    89.420904    125158.91   -43684.101    3340.6686    -47024.77   0.35598665 
  190200    271.59573    63.769203    125118.17   -43665.556    3315.2108   -46980.767   0.36138823 
  190400    271.62559    25.348264     125246.8   -43669.648    3315.5752   -46985.223    0.3481195 
  190600    275.37395   -48.262946    125335.91   -43624.365    3361.3293   -46985.695   0.34985849 
  190800      273.559    -26.79664    125236.74   -43618.391    3339.1752   -46957.566   0.34929217 
  191000    268.84949    43.788025    125105.36   -43656.908    3281.6891   -46938.597   0.35891982 
  191200    273.32729    28.515451    125142.51   -43665.155    3336.3469   -47001.502   0.35845454 
  191400    274.24804   -47.805435    125245.65   -43674.958     3347.586   -47022.544   0.35439016 
  191600    275.47947    6.8221024    125239.76   -43623.337    3362.6174   -46985.955   0.33456348 
  191800    274.38823   -5.7548862    125158.72   -43656.172    3349.2972   -47005.469   0.35398171 
  192000    274.73688    45.814813    125161.47   -43668.597     3353.553    -47022.15   0.35890036 
  192200     277.4199   -2.0577791    125247.87   -43635.882    3386.3031   -47022.185   0.34863878 
  192400    271.52656   -80.521886    125302.34   -43638.797    3314.3664   -46953.163   0.35268471 
  192600    271.75344   -21.747372    125231.06   -43676.182    3317.1358   -46993.317   0.35534477 
  192800    275.18749    51.055519    125151.89   -43654.166    3359.0532   -47013.219   0.34054923 
  193000    271.64791   -18.487674    125199.61   -43645.679    3315.8477   -46961.527   0.35288857 
  193200    276.16379     -8.75126    125295.16   -43618.768    3370.9704   -46989.738   0.35497104 
  193400    276.18121   -54.884943    125317.92   -43606.183     3371.183   -46977.366   0.33624559 
  193600    275.85641    15.018416     125273.3   -43628.762    3367.2184   -46995.981   0.34140149 
  193800    272.85357    28.293522    125240.27   -43652.379    3330.5646   -46982.944      0.36577 
  194000    267.74806     7.245678    125243.36   -43687.842    3268.2446   -46956.087   0.34051848 
  194200    268.53897   -20.778582    125271.28   -43664.048    3277.8987   -46941.947   0.35291606 
  194400    272.10967    3.1754442     125277.2   -43659.028    3321.4841   -46980.513   0.35862222 
  194600     271.5169   -23.381492    125250.94   -43660.144    3314.2486   -46974.392   0.32886629 
  194800    270.63764    15.181354    125221.78   -43665.696    3303.5159   -46969.212   0.34323511 
  195000    272.60087    13.443201    125249.78   -43646.697    3327.4799   -46974.177    0.3665895 
  195200    271.84452   -35.722629    125268.85   -43617.581    3318.2476   -46935.828   0.33819172 
  195400    272.25209   -23.799045    125223.12   -43637.425    3323.2226   -46960.648   0.34690095 
  195600    271.67137    37.673319    125159.54   -43642.724    3316.1341   -46958.858    0.3703693 
  195800    269.91433   -1.5608305    125167.22   -43678.459    3294.6869   -46973.146   0.35625206 
  196000      271.282    -28.68832    125211.95   -43662.871    3311.3813   -46974.252   0.36023202 
  196200    275.31159    7.0558346    125228.29   -43628.337    3360.5682   -46988.905    0.3627066 
  196400    272.85329    32.798293    125227.55   -43649.399    3330.5611   -46979.961   0.33607705 
  196600    270.78654    1.5732868    125198.84   -43693.166    3305.3335   -46998.499    0.3486046 
  196800    267.38177   -7.6090614    125195.48    -43681.34    3263.7734   -46945.114      0.36706 
  197000    272.12587    24.842142    125218.02   -43689.193    3321.6819   -47010.875   0.34731536 
  197200    271.10941    12.964167    125215.05   -43723.275    3309.2746   -47032.549   0.35089355 
  197400    270.79354    2.0987073    125180.98   -43717.914     3305.419   -47023.333   0.35671166 
  197600    276.42754    35.521851    125160.09   -43655.643    3374.1899   -47029.833    0.3459207 
  197800      273.588    22.997224    125212.91   -43624.543    3339.5292   -46964.072   0.35515298 
  198000    268.68967   -28.529113    125279.14   -43646.945    3279.7381   -46926.684   0.35488156 
  198200     274.4998   -29.594709    125225.36   -43670.025     3350.659   -47020.684   0.34614055 
  198400    272.90858    53.302628    125115.93   -43611.996     3331.236   -46943.232   0.36311604 
  198600    275.64822    62.089598    125143.44   -43591.081    3364.6772   -46955.758   0.36570208 
  198800    274.08918   -56.213032    125309.87   -43624.763    3345.6469    -46970.41   0.34302072 
  199000    275.00591   -83.100298    125352.62   -43615.251    3356.8369   -46972.088   0.34168976 
  199200    272.81345     19.38902    125213.05   -43622.982    3330.0748   -46953.057   0.35547522 
  199400    273.53222    95.358768     125132.1   -43630.764    3338.8483   -46969.612   0.34906616 
  199600    270.57313   -18.484771    125271.65   -43654.787    3302.7285   -46957.515   0.35096708 
  199800    273.63359   -121.59148    125396.03   -43635.488    3340.0858   -46975.574   0.34819412 
  200000    271.94152    10.116037     125269.1   -43638.388    3319.4317   -46957.819   0.34364958 
Loop time of 260.625 on 6 procs for 200000 steps with 4096 atoms

Performance: 331.511 ns/day, 0.072 hours/ns, 767.387 timesteps/s
98.9% CPU use with 6 MPI tasks x no OpenMP threads

MPI task timing breakdown:
Section |  min time  |  avg time  |  max time  |%varavg| %total
---------------------------------------------------------------
Pair    | 185.55     | 188.94     | 193.8      |  22.7 | 72.50
Neigh   | 11.636     | 12.075     | 12.765     |  12.8 |  4.63
Comm    | 41.636     | 47.109     | 50.927     |  51.2 | 18.08
Output  | 3.5637     | 3.5655     | 3.5732     |   0.2 |  1.37
Modify  | 6.7136     | 6.818      | 6.8742     |   2.0 |  2.62
Other   |            | 2.113      |            |       |  0.81

Nlocal:        682.667 ave         705 max         662 min
Histogram: 1 0 1 1 0 1 0 0 1 1
Nghost:        1598.17 ave        1614 max        1586 min
Histogram: 1 0 1 1 1 0 1 0 0 1
Neighs:        0.00000 ave           0 max           0 min
Histogram: 6 0 0 0 0 0 0 0 0 0
FullNghs:      21592.0 ave       22370 max       20902 min
Histogram: 1 1 0 1 0 1 0 0 1 1

Total # of neighbors = 129552
Ave neighs/atom = 31.628906
Neighbor list builds = 13040
Dangerous builds = 0

Total wall time: 0:06:28
