LAMMPS data file via write_data, version 12 Dec 2018, timestep = 100000

1000 atoms
1 atom types

-1.3037346316586529e-01 3.1152873463165356e+01 xlo xhi
-1.3037346316586529e-01 3.1152873463165356e+01 ylo yhi
-1.3037346316586529e-01 3.1152873463165356e+01 zlo zhi

Masses

1 18.015

Atoms # atomic

5 1 1.3055210470148817e+00 1.2336860565582215e+00 1.1243941071247854e+00 0 0 0
2 1 -1.7303971336275481e-02 2.9001610046280302e+00 2.7802655252861874e+00 0 0 0
506 1 8.8809176026765133e+00 1.5451089777890443e+01 2.8120238622486565e-01 0 0 0
7 1 4.3707708138135954e+00 1.4201194347978039e+00 4.4756411821795758e+00 0 0 0
10 1 6.2257682368661271e+00 3.0713815020882604e+00 2.7099131046244618e+00 0 0 0
13 1 7.5898266214880188e+00 1.3875993190258042e+00 1.4376959975142802e+00 0 0 0
15 1 1.0796664804078242e+01 1.5244889460155513e+00 4.5687250697079991e+00 0 0 0
18 1 1.2200400396687751e+01 3.2445639302402487e+00 3.1273391466606526e+00 0 0 0
517 1 2.4861631517386265e+01 1.5264306422566985e+01 3.2604509127242127e+00 0 0 0
98 1 2.7990870920369744e+01 1.2307169584328678e+01 3.2155703290082411e+00 0 0 0
21 1 1.3841464392952727e+01 1.6233295257010962e+00 1.5058239694805666e+00 0 0 0
23 1 1.6918029463703022e+01 1.4957459750199431e+00 4.5227947880079462e+00 0 0 0
44 1 3.0703967225069477e+00 8.8699200847129926e+00 1.0583080260930633e-01 0 0 0
26 1 1.8771829234329452e+01 3.0946966321213498e+00 3.0632034051260240e+00 0 0 0
29 1 1.9773023592804869e+01 1.5068118123765037e+00 1.4504809874915592e+00 0 0 0
505 1 6.0339021708065177e+00 1.5227795407961192e+01 3.2139508703207533e+00 0 0 0
31 1 2.3220469445113366e+01 1.1158593443148286e+00 4.4192941638249419e+00 0 0 0
501 1 3.0853237238435376e+01 1.5409506319161357e+01 3.1815472916010079e+00 -1 0 0
614 1 2.1701032046681796e+01 1.5461466997020167e+01 5.9877002686583412e+00 0 0 0
60 1 1.5356005118322139e+01 9.5144428320605687e+00 1.8184064135087624e-01 0 0 0
34 1 2.4577198614917705e+01 2.9013318888572144e+00 2.9394918604161586e+00 0 0 0
37 1 2.6310147493065145e+01 1.2498716026028061e+00 1.4786985252049891e+00 0 0 0
100 1 2.9254922538488813e+01 1.3673069768183428e+01 4.8569417036411684e+00 0 0 0
39 1 2.9634813400496810e+01 1.3927953171304790e+00 4.3031112707747026e+00 0 0 0
11 1 9.2530867242278294e+00 -1.2004217501760743e-01 3.0719469068508052e+00 0 0 0
95 1 2.0487745430543072e+01 1.3937873056260898e+01 1.3565162782024034e+00 0 0 0
6 1 1.4418875535812572e+00 4.5358056158448710e+00 4.5721289063175670e+00 0 0 0
43 1 2.7666078775790348e+00 5.8953489529248877e+00 2.9733465510467059e+00 0 0 0
45 1 1.0238319533736464e+00 7.7000320979730850e+00 1.6140486386453168e+00 0 0 0
81 1 3.1096376540420238e+01 1.1816043721756261e+01 -1.1859833871926280e-01 -1 0 0
8 1 4.6737074665639051e+00 4.3331863816416849e+00 1.1546940649381980e+00 0 0 0
47 1 4.3637436957392914e+00 7.4582770932982907e+00 4.2016975180856386e+00 0 0 0
14 1 7.5992087153727210e+00 4.4473759787193083e+00 4.4939978082477863e+00 0 0 0
51 1 9.1836623490151457e+00 5.8557884726718772e+00 2.8216030700345129e+00 0 0 0
53 1 7.5472083929680664e+00 7.5122009553349836e+00 1.3169722639069994e+00 0 0 0
16 1 1.0877992649184604e+01 4.3873477961863960e+00 1.2909135792804225e+00 0 0 0
61 1 1.3639518280237864e+01 7.8400732712686834e+00 2.0228356549862712e+00 0 0 0
55 1 1.1004598497390550e+01 7.5690689015815957e+00 4.7194457905943334e+00 0 0 0
19 1 1.5238008791781052e+01 -9.6494244866066059e-04 3.1133628814568213e+00 0 0 0
22 1 1.4120649615737792e+01 4.2889671925573492e+00 4.6837180365259572e+00 0 0 0
59 1 1.5538467334858382e+01 6.1231174645154809e+00 3.2483053847452870e+00 0 0 0
24 1 1.6792779129762181e+01 4.7271193398175972e+00 1.4677889864618783e+00 0 0 0
30 1 2.0165717760938342e+01 4.7167793522461974e+00 4.6078992908172856e+00 0 0 0
32 1 2.2976985701692364e+01 4.4030878689135085e+00 1.2202046951929904e+00 0 0 0
67 1 2.1646001472967164e+01 6.0906817021093804e+00 2.8194036755541516e+00 0 0 0
71 1 2.3313677782099738e+01 7.5694731980456016e+00 4.4015962956210917e+00 0 0 0
38 1 2.6196380295744589e+01 4.3623816696124909e+00 4.4677093435311912e+00 0 0 0
77 1 2.6457501149406681e+01 7.5538381763307969e+00 1.3757855067394249e+00 0 0 0
75 1 2.8103221208379999e+01 5.8877719558386916e+00 3.1129610613195058e+00 0 0 0
40 1 2.9593206005202980e+01 4.5841604138546552e+00 1.4182051288490436e+00 0 0 0
79 1 2.9741372289144273e+01 7.4145109843327841e+00 4.6211608887623621e+00 0 0 0
46 1 1.2816345512723530e+00 1.0822324666232051e+01 5.1229509564655826e+00 0 0 0
513 1 1.8949354083885694e+01 1.5234756836675984e+01 2.8057016433033533e+00 0 0 0
48 1 4.2903828159558879e+00 1.0892964755962993e+01 1.4602647888624738e+00 0 0 0
50 1 5.8846323009053796e+00 9.3153190657593221e+00 2.8429428240665056e+00 0 0 0
54 1 8.0324247526004768e+00 1.0812812409678218e+01 4.4479908592928297e+00 0 0 0
56 1 1.0753785772716604e+01 1.0958681817382834e+01 1.3140150863418740e+00 0 0 0
58 1 1.2088946076307600e+01 9.5493914718809041e+00 2.9702836571630478e+00 0 0 0
62 1 1.3873189272141099e+01 1.0982962397517285e+01 4.7252354676337047e+00 0 0 0
63 1 1.7063773245224091e+01 7.8971527821567982e+00 4.6910330228996520e+00 0 0 0
64 1 1.6969230807950247e+01 1.1119436041114538e+01 1.6507789818200060e+00 0 0 0
92 1 1.7189698243739883e+01 1.4032972281132132e+01 4.4825931210242409e+00 0 0 0
69 1 1.9799836073920808e+01 7.4610919537874381e+00 1.5670773947865275e+00 0 0 0
66 1 1.8643472139534559e+01 9.4460040417880275e+00 3.0048526814114891e+00 0 0 0
70 1 2.0216682877899743e+01 1.0855791186235265e+01 4.6727264213963364e+00 0 0 0
72 1 2.3099942748721688e+01 1.0880526288839189e+01 1.5058823223471267e+00 0 0 0
90 1 1.5732768003714034e+01 1.2492715294130075e+01 3.1816766337588418e+00 0 0 0
74 1 2.4713482905914745e+01 9.3010362485876623e+00 2.6327358170760342e+00 0 0 0
78 1 2.6094328418047404e+01 1.0573286166741044e+01 4.4868845212572310e+00 0 0 0
42 1 -6.3547610913168739e-02 9.3977613017386261e+00 3.1871429242752067e+00 0 0 0
80 1 2.9447321489124853e+01 1.0725723844083770e+01 1.5751349054501576e+00 0 0 0
83 1 9.9852164665479082e-01 1.3884187395892072e+01 1.5539199698513975e+00 0 0 0
82 1 2.6885835471975734e+00 1.2082814205882030e+01 3.0644685867177879e+00 0 0 0
3 1 2.7833542975793062e+00 -4.9974772670267953e-02 2.8241039823538863e+00 0 0 0
99 1 2.6428418794397317e+01 1.3985700188665634e+01 1.6592147523139684e+00 0 0 0
94 1 2.1677715051725045e+01 1.2297983041011431e+01 3.1179068923853022e+00 0 0 0
84 1 4.1863748995743935e+00 1.3687926384619928e+01 4.8169535000944990e+00 0 0 0
87 1 7.3291868444706560e+00 1.3852582204037981e+01 1.8970332168993269e+00 0 0 0
86 1 9.2862791302774710e+00 1.2276671305029575e+01 3.0248637783830867e+00 0 0 0
96 1 2.3318605028548667e+01 1.3608092197432542e+01 4.9111395959560946e+00 0 0 0
91 1 1.3920343465445205e+01 1.3876362704400742e+01 1.5194651847723704e+00 0 0 0
88 1 1.0748348126339740e+01 1.3839737450808109e+01 4.4069918683975420e+00 0 0 0
27 1 2.1552115664605168e+01 -2.3150081740471090e-02 2.9942176026029466e+00 0 0 0
57 1 1.2528685838017331e+01 6.1879863633130707e+00 1.6830582695919666e-01 0 0 0
141 1 1.5824165111853716e-01 6.2570160120149474e+00 6.0735531454141674e+00 0 0 0
606 1 9.3491227807191564e+00 1.5387506180590949e+01 6.0136705427453361e+00 0 0 0
125 1 1.8550701818848317e+01 -7.8769377262197238e-03 5.9383471774041316e+00 0 0 0
73 1 2.4776901206246372e+01 5.9771922992792366e+00 -3.4046705071089770e-02 0 0 0
185 1 6.2329123808893874e+00 1.2050429977772060e+01 6.0498629508768218e+00 0 0 0
149 1 5.8574971441335224e+00 6.0603820902257519e+00 5.8921700127837342e+00 0 0 0
104 1 2.9860657636212560e+00 3.1444841998206989e+00 6.0621947421214077e+00 0 0 0
136 1 2.8337133053182392e+01 3.0339816218418907e+00 5.7028833982117924e+00 0 0 0
76 1 2.8175050538388703e+01 8.9476271297986933e+00 1.9540422987604000e-02 0 0 0
20 1 1.5262006546039261e+01 2.9059603002717616e+00 5.6818562245296467e-02 0 0 0
65 1 1.8293542779277551e+01 6.1022282094836973e+00 -4.9439274125060842e-02 0 0 0
4 1 2.9015925803955849e+00 2.9309950348666138e+00 -1.1168797184967966e-01 0 0 0
618 1 2.7509339689699750e+01 1.5162635477149546e+01 6.0661036687821914e+00 0 0 0
157 1 1.2283343921555119e+01 5.8075868043446892e+00 6.1173507287165378e+00 0 0 0
176 1 2.8057140324220313e+01 9.0634567747925363e+00 5.9155080789976253e+00 0 0 0
602 1 2.7614601991861676e+00 1.5397183379359312e+01 6.0028312207905676e+00 0 0 0
128 1 2.1962417386007658e+01 3.2131393094998062e+00 5.9270173851852412e+00 0 0 0
68 1 2.1722039966854410e+01 9.1990102064505450e+00 -2.9248903838798412e-02 0 0 0
36 1 2.7693787591453372e+01 3.0821369605258493e+00 -2.8091035376839102e-02 0 0 0
93 1 1.8670854625275751e+01 1.2521211050213996e+01 -1.1071944566236880e-01 0 0 0
85 1 6.2963500717240155e+00 1.2317097874101279e+01 -5.9695805394625268e-02 0 0 0
89 1 1.2267746171446714e+01 1.2496309711723812e+01 -1.1829024541690103e-01 0 0 0
105 1 1.3947587834969446e+00 1.7050322357105006e+00 7.2998320647096158e+00 0 0 0
102 1 -2.9321029230239326e-02 3.2389059831903668e+00 9.2472227237776092e+00 0 0 0
135 1 2.7768373887416018e+01 1.1975369642582373e-01 9.1877060492457989e+00 0 0 0
225 1 1.8474546514521428e+01 4.6238729527814826e-02 1.2319841725463439e+01 0 0 0
107 1 4.5738877530605171e+00 1.4517139125767418e+00 1.0824139113483888e+01 0 0 0
110 1 5.8178746848813967e+00 3.1697657002756232e+00 9.2460222007046635e+00 0 0 0
113 1 7.6830480129696008e+00 1.6030848941259663e+00 7.9627486176728564e+00 0 0 0
609 1 1.2185541050132876e+01 1.5497830544204870e+01 9.2833092751300086e+00 0 0 0
193 1 1.8536553597010212e+01 1.2651164782327104e+01 6.1589937949473299e+00 0 0 0
115 1 1.0813858903407100e+01 1.4458707001951208e+00 1.0943415680145325e+01 0 0 0
118 1 1.2229882405512415e+01 2.8472087202627754e+00 9.1198195377648545e+00 0 0 0
121 1 1.3999705791356867e+01 1.5256141539592807e+00 8.0839816440256005e+00 0 0 0
165 1 1.8395126442376629e+01 6.3003102755405376e+00 6.1489896431387168e+00 0 0 0
188 1 1.0546784889874990e+01 1.4017221729678997e+01 1.0816250878437204e+01 0 0 0
168 1 2.1560464747311002e+01 9.0369569011782414e+00 6.4133310198112241e+00 0 0 0
123 1 1.7178175689291955e+01 1.5448728557327256e+00 1.0933514192657766e+01 0 0 0
126 1 1.8437186748465983e+01 3.1075831294732481e+00 9.0793358136681857e+00 0 0 0
129 1 2.0397544328173808e+01 1.2427347978316552e+00 7.5018598480792180e+00 0 0 0
181 1 3.0700844523516441e+01 1.2589391040701665e+01 6.5353472944750362e+00 -1 0 0
131 1 2.3257323087634425e+01 1.3903049803801484e+00 1.0772523448710663e+01 0 0 0
187 1 7.9056119701030134e+00 1.3613530741855644e+01 7.4745718941981591e+00 0 0 0
134 1 2.5052177121609382e+01 2.8234750097457737e+00 9.2568872966642335e+00 0 0 0
137 1 2.6660590293999434e+01 1.5458745987568603e+00 7.2439783684093966e+00 0 0 0
103 1 2.9592563151625102e+00 -1.9052488168609452e-02 9.1726796056880975e+00 0 0 0
112 1 8.8525158272681459e+00 3.0033379863449521e+00 6.1980050964544890e+00 0 0 0
186 1 9.2102294179685273e+00 1.2153445176165439e+01 9.2943046803977918e+00 0 0 0
139 1 2.9335603714444929e+01 1.7179057891548086e+00 1.0652681119658830e+01 0 0 0
106 1 1.3596303908489316e+00 4.9466873365691333e+00 1.0826803720038953e+01 0 0 0
143 1 3.3639661491687765e+00 6.4180527165240431e+00 9.3684292310337831e+00 0 0 0
145 1 1.5655263580872825e+00 7.5708924269093671e+00 7.9788892914099794e+00 0 0 0
184 1 4.8875902234472628e+00 1.4142999743241004e+01 1.0923024311664159e+01 0 0 0
183 1 1.4534859969029323e+00 1.3962917760106235e+01 7.8345394844963661e+00 0 0 0
108 1 4.3350684582391965e+00 4.5681442241387149e+00 7.6703687007240591e+00 0 0 0
147 1 5.0378814599661714e+00 7.9476832398708712e+00 1.0968558867468879e+01 0 0 0
190 1 1.5431881429459938e+01 1.2500879328834007e+01 9.0947399607954793e+00 0 0 0
200 1 2.9382727366613977e+01 1.3645464156763296e+01 1.0638775491556332e+01 0 0 0
114 1 7.4706861534850875e+00 4.9229734171908497e+00 1.0573783891476928e+01 0 0 0
151 1 9.1325274829120833e+00 6.3950765409284154e+00 9.0003016248386327e+00 0 0 0
153 1 7.7797509258403990e+00 7.6529616427741933e+00 7.1026250434360794e+00 0 0 0
116 1 1.0428089996924221e+01 4.6174202739685608e+00 7.8337772758180062e+00 0 0 0
155 1 1.0854275646408009e+01 7.6453701921939539e+00 1.0964793552452383e+01 0 0 0
122 1 1.3677902708849203e+01 4.1957363980990614e+00 1.1023670461197677e+01 0 0 0
159 1 1.5181025055489647e+01 5.9952633855356776e+00 9.5006607725777457e+00 0 0 0
124 1 1.6897043236896664e+01 4.8037018098330746e+00 7.6858243496166523e+00 0 0 0
163 1 1.6888887602150291e+01 7.7915203024266839e+00 1.0962937395523200e+01 0 0 0
161 1 1.3850238132768753e+01 7.6182959038609921e+00 7.6322046391110474e+00 0 0 0
198 1 2.7560384988840497e+01 1.2199816727267958e+01 9.5441832617182936e+00 0 0 0
130 1 1.9955462160764363e+01 4.5148427996063587e+00 1.1118416604779231e+01 0 0 0
169 1 1.9979667743816499e+01 7.6560743439095296e+00 8.0984335445638145e+00 0 0 0
199 1 2.6028038197739740e+01 1.3894149730793744e+01 7.8912865145812638e+00 0 0 0
132 1 2.3606571193037404e+01 4.4971830307357212e+00 7.9780332572145181e+00 0 0 0
167 1 2.1871452878843634e+01 6.2492743558105621e+00 9.7081817421135739e+00 0 0 0
138 1 2.6468820497542858e+01 4.4147800511759439e+00 1.0756759259157063e+01 0 0 0
177 1 2.6481676097929942e+01 7.5672238961838092e+00 7.7837671952087266e+00 0 0 0
192 1 1.6833544928592865e+01 1.4331513848567953e+01 1.0897004596828241e+01 0 0 0
195 1 2.0011587310447879e+01 1.4204438916865774e+01 7.8108835560564129e+00 0 0 0
175 1 2.7994400347094725e+01 5.9353170909461745e+00 9.1577457333624270e+00 0 0 0
140 1 2.9764727759043048e+01 4.6170396682226507e+00 7.3732181236194441e+00 0 0 0
146 1 1.2043758538028249e+00 1.1006227871003480e+01 1.0529140166350658e+01 0 0 0
194 1 2.1762778737971907e+01 1.2409958970539291e+01 9.3604776814510462e+00 0 0 0
148 1 4.3425638568182894e+00 1.0809677630930887e+01 7.9511080915454908e+00 0 0 0
150 1 6.0843803844709372e+00 9.2640657256730297e+00 8.9013871867771623e+00 0 0 0
154 1 7.4966787075332961e+00 1.0599887417304421e+01 1.0740074009793336e+01 0 0 0
191 1 1.3700103356016816e+01 1.4077821946502379e+01 7.5100559248388636e+00 0 0 0
156 1 1.0953580096090734e+01 1.0653017072261454e+01 7.9641834375945812e+00 0 0 0
158 1 1.2407976927416168e+01 9.2376776525540958e+00 9.4603016850918671e+00 0 0 0
196 1 2.3350418906334838e+01 1.3856590010349251e+01 1.1320991778384204e+01 0 0 0
162 1 1.4019722941033349e+01 1.0871116534623214e+01 1.1019569819404239e+01 0 0 0
164 1 1.6967476650778970e+01 1.0944318305835761e+01 7.6591153447761977e+00 0 0 0
166 1 1.8595873167363365e+01 9.4554078932574406e+00 9.5283719869292174e+00 0 0 0
170 1 2.0187629357854973e+01 1.0856047488970832e+01 1.1089946464070431e+01 0 0 0
171 1 2.3464607361019056e+01 7.9253288194553537e+00 1.1445366395763003e+01 0 0 0
172 1 2.3244386069319305e+01 1.0614079591925915e+01 8.0377991355709941e+00 0 0 0
180 1 2.9290910477837876e+01 1.0880489876837967e+01 8.0040505149206442e+00 0 0 0
182 1 3.0986601364476418e+00 1.2599835414571089e+01 9.3338133059718764e+00 0 0 0
178 1 2.6184189139150220e+01 1.0407252536203135e+01 1.1174419679142975e+01 0 0 0
174 1 2.4836666726262777e+01 8.7521317980485431e+00 9.5156475512642018e+00 0 0 0
179 1 2.9493115857806607e+01 7.8835738520840835e+00 1.0619793761965401e+01 0 0 0
142 1 -2.7094789325620150e-03 9.3807831345972907e+00 9.2882151948533132e+00 0 0 0
152 1 9.4113809197215179e+00 9.4194489409725470e+00 6.2329184806413940e+00 0 0 0
117 1 1.2697279624312507e+01 -1.1176993069427932e-02 6.1697896094201932e+00 0 0 0
601 1 3.0814117748333466e+01 1.5342133250791742e+01 8.9346316929268035e+00 -1 0 0
617 1 2.4609598730539567e+01 1.5399730086839083e+01 9.5200510371571916e+00 0 0 0
197 1 2.4793993188378295e+01 1.1947371688690309e+01 6.3585817060248173e+00 0 0 0
144 1 3.0889539436507425e+00 9.2329850687952852e+00 6.1741984366583003e+00 0 0 0
605 1 6.2475798620100216e+00 1.5210429548448781e+01 8.8871685377445804e+00 0 0 0
127 1 2.2000007244172210e+01 2.6361291887828486e-02 9.0332725626649211e+00 0 0 0
189 1 1.2219012141307463e+01 1.2404947077812292e+01 6.2257414366983079e+00 0 0 0
173 1 2.4908648304067185e+01 5.8056451669864613e+00 6.5442192403977844e+00 0 0 0
285 1 6.1436286850169033e+00 1.2469017319294336e+01 1.2171515746336445e+01 0 0 0
160 1 1.5478547380306528e+01 9.1446628028174342e+00 6.2589920525462421e+00 0 0 0
241 1 -1.1055648344940293e-01 6.4814817312610575e+00 1.2228672399855316e+01 0 0 0
120 1 1.5649464915488753e+01 2.8969286357337363e+00 6.5243265030679591e+00 0 0 0
236 1 2.7863630457788943e+01 2.9134097504521712e+00 1.2312628329446522e+01 0 0 0
281 1 3.1092442414799837e+01 1.2337486462191476e+01 1.2374955182360109e+01 -1 0 0
201 1 3.1098705056262894e+01 -5.9543870868537213e-02 1.2122639953978796e+01 -1 0 0
244 1 3.0397745985303586e+00 9.4896939741890343e+00 1.2314673012007152e+01 0 0 0
212 1 9.0940900048203694e+00 3.4155553009664756e+00 1.2057123632789319e+01 0 0 0
204 1 3.1127429644051534e+00 3.1850647827966947e+00 1.2269016409891023e+01 0 0 0
109 1 6.0584994376094308e+00 5.3874629371502558e-03 6.3327828394350201e+00 0 0 0
205 1 1.5934973548498179e+00 1.6669658739852586e+00 1.3548484429651166e+01 0 0 0
202 1 3.7255612626392876e-03 3.2799408007341295e+00 1.5019443506728253e+01 0 0 0
207 1 4.7976301111235617e+00 1.2610547590343719e+00 1.7011368101264736e+01 0 0 0
210 1 6.2597056279693497e+00 3.1209116135330417e+00 1.5650625095509357e+01 0 0 0
298 1 2.8042425779292039e+01 1.2055864270210451e+01 1.5749826257001766e+01 0 0 0
213 1 7.7646486396795913e+00 1.9506890436360473e+00 1.3806748136771681e+01 0 0 0
265 1 1.8547347618129869e+01 6.2513321707269167e+00 1.2555925825905456e+01 0 0 0
215 1 1.0828778442985515e+01 1.4589219707147321e+00 1.7078963613375194e+01 0 0 0
218 1 1.2272809902055959e+01 2.8934004493824448e+00 1.5589844138153751e+01 0 0 0
221 1 1.4067014678205780e+01 1.5445889913796789e+00 1.4304944140276371e+01 0 0 0
260 1 1.5303522995185304e+01 9.3438857527655070e+00 1.2574838024123997e+01 0 0 0
223 1 1.7182338900882201e+01 9.2590118696461943e-01 1.7314657617620924e+01 0 0 0
211 1 9.5836813979312918e+00 5.4884537537020606e-02 1.5263685849016513e+01 0 0 0
226 1 1.8621437752487367e+01 2.9392617051807077e+00 1.5885359647143138e+01 0 0 0
229 1 2.0144314080981140e+01 1.4743853794091111e+00 1.3928187714713232e+01 0 0 0
293 1 1.8480276437362726e+01 1.2462139736800401e+01 1.2628773290066102e+01 0 0 0
231 1 2.3201785988963898e+01 1.4649342881017913e+00 1.7253553390298670e+01 0 0 0
705 1 6.1347002354987534e+00 1.5444292223752862e+01 1.5735501140845630e+01 0 0 0
234 1 2.4873458268007624e+01 3.1255447620064873e+00 1.6028946926621821e+01 0 0 0
237 1 2.6191194494614436e+01 1.6130801529730197e+00 1.3975652929840198e+01 0 0 0
239 1 2.9544854981541931e+01 1.6496612674276565e+00 1.6719968700814512e+01 0 0 0
252 1 9.3719314821805320e+00 9.2554653440425447e+00 1.2689452102994609e+01 0 0 0
206 1 1.4345435491785195e+00 4.6426658286437679e+00 1.6699887030659482e+01 0 0 0
245 1 1.3152411191890288e+00 8.1989640489839974e+00 1.3946490573302144e+01 0 0 0
243 1 3.1584690856958009e+00 6.3635347439372030e+00 1.5420558004892667e+01 0 0 0
208 1 4.6764131637064326e+00 4.6044278410868875e+00 1.3978828590158779e+01 0 0 0
247 1 4.3985243025996228e+00 7.8874192962918350e+00 1.7083254986019867e+01 0 0 0
818 1 2.7950687248116502e+01 1.5479286354228053e+01 1.8616884986803974e+01 0 0 0
214 1 7.5418373517003081e+00 4.6342762948221967e+00 1.7255633480990866e+01 0 0 0
251 1 8.9482149095399102e+00 6.4044125916760519e+00 1.6006313032334525e+01 0 0 0
253 1 7.6832295449205690e+00 8.0658409851801718e+00 1.4436176556752313e+01 0 0 0
228 1 2.1730387198380427e+01 3.1910486991149210e+00 1.2507599080984269e+01 0 0 0
216 1 1.0500519201389851e+01 4.9533148211398021e+00 1.4141896010021776e+01 0 0 0
255 1 1.1093185213636163e+01 7.6934835348397321e+00 1.7044367415308884e+01 0 0 0
222 1 1.3442558097248796e+01 4.2927843963151142e+00 1.7288920681662731e+01 0 0 0
259 1 1.5308694082357658e+01 5.8649668449404304e+00 1.5525877762692915e+01 0 0 0
224 1 1.7208801752448913e+01 4.3626706525829446e+00 1.4096904869134116e+01 0 0 0
230 1 1.9799147933891014e+01 4.7207379915319034e+00 1.7323588525088468e+01 0 0 0
232 1 2.3087537165155197e+01 4.6477909676405362e+00 1.4409242090733539e+01 0 0 0
267 1 2.1484721694992572e+01 6.4381549126230606e+00 1.5953685721200847e+01 0 0 0
271 1 2.3212164896976773e+01 7.8546972244977695e+00 1.7319852859591670e+01 0 0 0
717 1 2.5035564211721400e+01 1.5263381161485251e+01 1.5666390661083323e+01 0 0 0
238 1 2.6472795973330300e+01 4.7418620972651535e+00 1.7257181695143991e+01 0 0 0
276 1 2.8032458958930945e+01 9.1255097905132505e+00 1.2561919275059489e+01 0 0 0
275 1 2.7984183180634723e+01 5.8861698230134651e+00 1.5438838234682915e+01 0 0 0
240 1 2.9431250774767868e+01 4.8762277859636667e+00 1.3514301795569279e+01 0 0 0
279 1 2.9621490885160270e+01 7.5930358144398857e+00 1.6996242658657614e+01 0 0 0
296 1 2.3373771773211935e+01 1.3992178730177880e+01 1.7513566577721647e+01 0 0 0
246 1 1.3836639841974934e+00 1.1189438419431076e+01 1.6966924891150981e+01 0 0 0
295 1 2.0411805346273631e+01 1.3982587320192955e+01 1.4103437925014200e+01 0 0 0
248 1 4.5704701958650045e+00 1.1111802137687071e+01 1.3879923479844225e+01 0 0 0
250 1 5.9576926363685221e+00 9.7068973080020235e+00 1.5548057240305216e+01 0 0 0
254 1 7.5405418140977689e+00 1.1227432406569088e+01 1.7039076711927038e+01 0 0 0
291 1 1.3760996503855210e+01 1.3938466783839599e+01 1.4208997434954506e+01 0 0 0
292 1 1.6891161775328307e+01 1.3818493643454214e+01 1.7038084636669950e+01 0 0 0
256 1 1.0978509834003125e+01 1.0989048473185425e+01 1.4110420727913992e+01 0 0 0
258 1 1.2554038837243660e+01 9.3964144969973606e+00 1.5531046812783876e+01 0 0 0
261 1 1.3882428199905389e+01 7.5167819601368073e+00 1.4032522757110508e+01 0 0 0
263 1 1.7067923003574386e+01 7.8863769165266131e+00 1.7073258490335519e+01 0 0 0
262 1 1.4059776831125252e+01 1.1160576839785081e+01 1.7187778778103876e+01 0 0 0
344 1 2.8457320175700955e+00 9.4303908920470185e+00 1.8494069321314399e+01 0 0 0
264 1 1.7005278371577035e+01 1.0888421717224128e+01 1.4027981779028041e+01 0 0 0
269 1 2.0239546676640103e+01 7.6039452382613648e+00 1.4048843243193314e+01 0 0 0
266 1 1.8685970905054866e+01 9.3470650269037119e+00 1.5581621392445891e+01 0 0 0
270 1 2.0283244190343900e+01 1.0730115082632999e+01 1.7324293641874661e+01 0 0 0
290 1 1.5354124961437332e+01 1.2459927677156726e+01 1.5306279293337102e+01 0 0 0
272 1 2.3428562841714722e+01 1.1070320715196612e+01 1.4148223691139826e+01 0 0 0
277 1 2.6484123488923174e+01 7.6592658202613437e+00 1.4210899080498796e+01 0 0 0
274 1 2.4721350286783441e+01 9.2225495067765255e+00 1.5569337031520467e+01 0 0 0
278 1 2.6235854300475424e+01 1.0632423082920518e+01 1.7104641037202740e+01 0 0 0
242 1 3.1026598194199828e+01 9.3642571825160825e+00 1.5556606680848477e+01 -1 0 0
280 1 2.9447332239626753e+01 1.0811628827245103e+01 1.3936520645622958e+01 0 0 0
286 1 9.2268906760071872e+00 1.2729007129645181e+01 1.5700476843610808e+01 0 0 0
288 1 1.0785007490426057e+01 1.4353601168935747e+01 1.7274975741400588e+01 0 0 0
300 1 2.9587690833970939e+01 1.3776970064795556e+01 1.7040404761910203e+01 0 0 0
287 1 7.4094169460965276e+00 1.4091565534870234e+01 1.4034913389405073e+01 0 0 0
283 1 1.6172102972544506e+00 1.4135794793823353e+01 1.3829063296299195e+01 0 0 0
282 1 2.9647238488059231e+00 1.3025911127525022e+01 1.5362642770066266e+01 0 0 0
294 1 2.1948731911679687e+01 1.2386635621690775e+01 1.5913810613111478e+01 0 0 0
284 1 4.5625465467477611e+00 1.3926401117482186e+01 1.7373439595784951e+01 0 0 0
299 1 2.6688301203950658e+01 1.3658937733692174e+01 1.3995650242388326e+01 0 0 0
235 1 2.8076852603727879e+01 -4.1802349945926909e-02 1.5117966968657852e+01 0 0 0
297 1 2.4942815687906311e+01 1.2233960559270427e+01 1.2622420302441178e+01 0 0 0
273 1 2.4815206068848795e+01 6.0094507819769927e+00 1.2452417277976833e+01 0 0 0
249 1 6.4231599730726634e+00 6.1166365613241576e+00 1.2657900377162369e+01 0 0 0
304 1 3.0375500138017784e+00 3.1057301086734723e+00 1.8321389027444212e+01 0 0 0
714 1 2.2100391706676618e+01 1.5337360701161906e+01 1.2674319135404930e+01 0 0 0
268 1 2.1696606357328676e+01 9.3873022595432438e+00 1.2818538138005412e+01 0 0 0
289 1 1.2204137059908795e+01 1.2712255524549755e+01 1.2462320236909399e+01 0 0 0
352 1 9.1997282802027218e+00 9.5879191493695313e+00 1.8272177543772749e+01 0 0 0
718 1 2.8036484168718552e+01 1.5430665206326680e+01 1.2394667377741868e+01 0 0 0
301 1 3.1058259680151263e+01 2.3684970206503619e-02 1.8188414840166125e+01 -1 0 0
320 1 1.5467978685948482e+01 2.8784347204731628e+00 1.8305534058903497e+01 0 0 0
336 1 2.8196081161383525e+01 2.9189330677786560e+00 1.8545733415840971e+01 0 0 0
209 1 5.9865422024719663e+00 7.3718142195019681e-02 1.2422926235927218e+01 0 0 0
220 1 1.5599162772418772e+01 2.9530681697185757e+00 1.2642368941422985e+01 0 0 0
217 1 1.2518724601448945e+01 3.0050462545365519e-01 1.2647093746964350e+01 0 0 0
257 1 1.2313259320611904e+01 5.7354890592235339e+00 1.2588230372967534e+01 0 0 0
305 1 1.2568813712448754e+00 1.4717263436842316e+00 1.9660861874233426e+01 0 0 0
357 1 1.2232769613138364e+01 6.0842597903136868e+00 1.8967663846055565e+01 0 0 0
349 1 6.1951258221141297e+00 6.3964629387607257e+00 1.8792052441609478e+01 0 0 0
307 1 4.6853626134080057e+00 1.2201998042858404e+00 2.3374002533913078e+01 0 0 0
310 1 5.9105523266481743e+00 3.0120572396292937e+00 2.1811108692623478e+01 0 0 0
457 1 1.2201567703546280e+01 5.9526744723236460e+00 2.4859492124246358e+01 0 0 0
313 1 7.4857675369107737e+00 1.1408772308549571e+00 2.0190894866262894e+01 0 0 0
315 1 1.0953819859888617e+01 1.2689420676304568e+00 2.3379662226459139e+01 0 0 0
318 1 1.2365218564799717e+01 2.7975559968057153e+00 2.1603283392845043e+01 0 0 0
914 1 2.1845939682532389e+01 1.5180709324108493e+01 2.4801515298185215e+01 0 0 0
398 1 2.8206071826367854e+01 1.2250694457975346e+01 2.1692868249341579e+01 0 0 0
321 1 1.4187118181959656e+01 1.3575894908949497e+00 2.0006316280983427e+01 0 0 0
399 1 2.6677206605695183e+01 1.3858916668409382e+01 2.0329830386137736e+01 0 0 0
323 1 1.6991655055260928e+01 1.5369242167864960e+00 2.3286065352799930e+01 0 0 0
326 1 1.8508402397242143e+01 3.0422919032749882e+00 2.1944492075330913e+01 0 0 0
329 1 2.0221723170757606e+01 1.5982889489431515e+00 2.0552533801556720e+01 0 0 0
331 1 2.3537121875424845e+01 1.4170957244523130e+00 2.3503724982924332e+01 0 0 0
312 1 9.0071916071796956e+00 2.8458391891909440e+00 1.8728413136317236e+01 0 0 0
334 1 2.4769183208567590e+01 3.0659937752564099e+00 2.1741646499470775e+01 0 0 0
337 1 2.6277503081426744e+01 1.4868158743556987e+00 2.0220615717021602e+01 0 0 0
302 1 9.3689197388118484e-03 2.7879274202558522e+00 2.1730676549376703e+01 0 0 0
339 1 2.9605615366263017e+01 1.3008932162035329e+00 2.2940423893060576e+01 0 0 0
400 1 2.9444783381178347e+01 1.4028103830165312e+01 2.3393188969704653e+01 0 0 0
385 1 5.9954797566116618e+00 1.2254843393012758e+01 1.8752880821485938e+01 0 0 0
306 1 1.6316253149912721e+00 4.6823128617879384e+00 2.3412513521693668e+01 0 0 0
343 1 3.1101265984813988e+00 6.3122454455980277e+00 2.1812029236046833e+01 0 0 0
345 1 1.6730296464879078e+00 7.5039396171820014e+00 2.0175415324578928e+01 0 0 0
397 1 2.5179054050240474e+01 1.2493169942955994e+01 1.8651935994400581e+01 0 0 0
308 1 4.4360128415171962e+00 4.6800372240423691e+00 1.9949547489242036e+01 0 0 0
347 1 4.8154419893383675e+00 7.7944711280438481e+00 2.3053802405716489e+01 0 0 0
314 1 7.6605634072734663e+00 4.2369274815838187e+00 2.2887796657632350e+01 0 0 0
351 1 9.3335242710827391e+00 6.1190291809946151e+00 2.1582978756589057e+01 0 0 0
353 1 7.7067154862489344e+00 7.9561192979553592e+00 2.0095546072288386e+01 0 0 0
412 1 9.1304911583985842e+00 2.8472586583090727e+00 2.4641150982084888e+01 0 0 0
316 1 1.0642078557702652e+01 4.3721162563174403e+00 2.0211845773288687e+01 0 0 0
355 1 1.0703046817332853e+01 7.7360610329839137e+00 2.3632377907883047e+01 0 0 0
801 1 3.1146765974384785e+01 1.5510726203897528e+01 2.1622550495480375e+01 -1 0 0
322 1 1.3849761993321890e+01 4.2374479429455860e+00 2.3156161341777391e+01 0 0 0
359 1 1.5331337809098583e+01 5.9160771059024979e+00 2.1700767639292629e+01 0 0 0
324 1 1.6822564433732829e+01 4.3714446859074991e+00 1.9923386208278338e+01 0 0 0
330 1 2.0014580939540956e+01 4.7033687976082295e+00 2.3191479382387392e+01 0 0 0
391 1 1.4072833993903455e+01 1.4051140903561256e+01 2.0449301438882841e+01 0 0 0
332 1 2.3068308342441270e+01 4.3691535197029197e+00 2.0339338211808077e+01 0 0 0
367 1 2.1693667316203651e+01 6.1196817588703372e+00 2.1715097923213470e+01 0 0 0
338 1 2.6541139906683718e+01 4.7664026366052532e+00 2.2955083143372185e+01 0 0 0
377 1 2.6365160007618933e+01 7.8059596374603757e+00 2.0373842156043644e+01 0 0 0
375 1 2.8074215769881349e+01 6.2445042715495713e+00 2.1505924610112508e+01 0 0 0
340 1 2.9860016799282377e+01 4.4586895830879918e+00 1.9979734369968398e+01 0 0 0
379 1 3.0002263986101767e+01 7.4376789300393265e+00 2.3089223782475294e+01 0 0 0
346 1 1.6079026199487241e+00 1.0983393861491717e+01 2.3208936080086424e+01 0 0 0
348 1 4.4505085763941263e+00 1.0659211217024286e+01 2.0228415127963714e+01 0 0 0
350 1 6.1890612827390603e+00 9.6197378922463983e+00 2.1814416631392845e+01 0 0 0
354 1 7.7328934864556134e+00 1.0775620899570972e+01 2.3527152594708475e+01 0 0 0
356 1 1.0817373002090060e+01 1.0794739554460403e+01 2.0286396867888726e+01 0 0 0
358 1 1.2380593992053555e+01 9.2969954285693479e+00 2.1946099471555790e+01 0 0 0
362 1 1.4120912029730164e+01 1.0673505483494042e+01 2.3412789170566739e+01 0 0 0
361 1 1.3929735529952776e+01 7.7594837562171115e+00 2.0311932987170103e+01 0 0 0
364 1 1.6812532015839359e+01 1.1054630573289696e+01 2.0422905221415846e+01 0 0 0
363 1 1.6555258078630558e+01 7.2632135646473763e+00 2.3513443590493182e+01 0 0 0
394 1 2.1890431482066326e+01 1.2049365604195353e+01 2.2079278310248199e+01 0 0 0
396 1 2.3516691954956663e+01 1.3798309062582415e+01 2.3407234867771933e+01 0 0 0
369 1 2.0101887565881121e+01 7.7645957668980028e+00 2.0283651277245120e+01 0 0 0
366 1 1.8075097019876942e+01 9.1841000827901649e+00 2.1787157157444838e+01 0 0 0