LAMMPS data file via write_data, version 12 Dec 2018, timestep = 495

4083 atoms
2 atom types

1.1029689232492071e-01 4.9889703107673952e+01 xlo xhi
1.1029689232492071e-01 4.9889703107673952e+01 ylo yhi
1.1029689232492071e-01 4.9889703107673952e+01 zlo zhi

Masses

1 18.015
2 18.015

Atoms # atomic

3088 2 2.6099949525661588e+00 1.2583259263985247e+00 9.1587061085485899e-01 0 0 0
3085 2 5.9292654336902861e-01 2.8675449637234385e+00 2.7570133657809155e+00 0 0 0
3086 2 3.8569495583545703e+00 3.8824660310657000e-01 3.3321848458220793e+00 0 0 0
1241 1 2.4335925520182997e+01 5.5596255289379226e-01 7.2195025405740960e+00 0 1 0
3093 2 6.3789935305399474e+00 3.2561015451697819e+00 3.7245009934697473e+00 0 0 0
3096 2 7.2659112574390008e+00 1.2682265064814289e+00 2.1650871456728873e+00 0 0 0
3094 2 8.7866609607778194e+00 1.9591693260457926e-01 4.1312695534293580e+00 0 0 0
3101 2 1.2393198412006038e+01 3.0952561149698279e+00 3.6926048578134414e+00 0 0 0
3104 2 1.3788799062013146e+01 1.3195493795347994e+00 2.2504481622314660e+00 0 0 0
3102 2 1.5994832875777517e+01 4.4966930157658108e-01 3.5003869346817655e+00 0 0 0
46 1 4.5671365495853593e+01 2.3952697560501910e+01 7.3080100653169016e+00 0 0 0
3109 2 1.8882599264395257e+01 3.4799958698152560e+00 3.4333617928092854e+00 0 0 0
3112 2 2.0351593316879516e+01 1.7468909643064408e+00 1.9304158396683249e+00 0 0 0
3110 2 2.1489111755115047e+01 4.0976346142820058e-01 4.0504641888694595e+00 0 0 0
3117 2 2.4992823553182980e+01 3.1825161471059213e+00 3.8892816557761907e+00 0 0 0
3120 2 2.6263101494032028e+01 1.2422720421353701e+00 2.4336299473184462e+00 0 0 0
3119 2 2.8951474868905070e+01 1.5661351257390721e+00 2.2860921949136346e+00 0 0 0
3662 2 1.5857897336202123e+01 2.4716958689506949e+01 3.2503949953633273e+00 0 0 0
15 1 3.6095390665103665e+01 2.9500460274861227e+00 5.1019386828713031e-01 0 0 1
16 1 3.8435321661056733e+01 2.1974955155505338e+00 1.5366111516700789e+00 0 0 1
17 1 3.7371354377793992e+01 1.5141907094211757e-01 2.9579654131990298e+00 0 0 0
1102 1 9.1259759404642224e+00 2.5973588422687488e+00 5.8023314735440157e-01 0 0 0
18 1 4.3280473259905349e+01 2.2259663579951230e+00 8.0934512802213476e-01 0 1 0
279 1 4.6349631036420732e+01 2.3463557286468752e+01 1.0019485421813254e+01 0 0 0
3126 2 3.4580400448472899e+00 6.1789966726654049e+00 3.5395911236143487e+00 0 0 0
3091 2 5.3245052746725872e+00 5.0317196724622981e+00 2.0607463114581006e+00 0 0 0
3134 2 9.3188417166619999e+00 6.1872648678897235e+00 3.3894600986718850e+00 0 0 0
3099 2 1.0723923155437987e+01 4.3981887330412714e+00 1.9945102499307881e+00 0 0 0
3768 2 1.8666505303755709e+01 2.4988398979759307e+01 6.5411115002165756e+00 0 0 0
3107 2 1.7255290400063728e+01 5.0185294583721394e+00 1.9636422781498692e+00 0 0 0
3148 2 1.8641550997456740e+01 6.9482577794530211e+00 5.9634464495838901e-01 0 0 0
3115 2 2.3626183086026565e+01 4.8878296622536190e+00 2.3305660111810607e+00 0 0 0
3150 2 2.1931831954691329e+01 6.6118084495647569e+00 3.5811066994987479e+00 0 0 0
3156 2 2.5636097790587044e+01 6.0010913659981329e+00 9.8578025984792517e-01 0 0 0
3158 2 2.8239665187320263e+01 6.1713669853819937e+00 4.1366069980727209e+00 0 0 0
3123 2 2.9602399129209953e+01 4.6580484616499280e+00 2.3347878198076448e+00 0 0 0
33 1 3.2122920298399642e+01 5.1573605065292778e+00 1.4768017768787980e+00 0 0 0
34 1 3.4314750841519462e+01 3.8089980440645914e+00 2.4064581571071462e+00 0 0 0
35 1 4.0807599733749370e+01 5.6004576306571625e+00 2.4752025581467341e+00 0 0 0
36 1 4.6839896076747102e+01 4.1747216801347298e+00 3.8335739519651185e-01 0 0 1
37 1 4.7825371732606108e+01 3.8634296807237534e+00 2.8604559920582604e+00 0 0 0
42 1 4.2818840161026237e+01 2.2948033510047360e+01 9.3654225163536733e+00 0 0 0
3128 2 1.4298507688956259e+00 7.2257862164897055e+00 2.1676990982413922e+00 0 0 0
3125 2 6.1633467315318091e-01 9.6942110130209986e+00 3.2931500816620636e+00 0 0 0
3133 2 6.4461648334186794e+00 9.1882961900549773e+00 3.2993687012884099e+00 0 0 0
3136 2 7.2704305509972080e+00 7.0241407075310782e+00 1.7115593748775357e+00 0 0 0
3141 2 1.2607478688375148e+01 9.3840797363941100e+00 3.4137134751296956e+00 0 0 0
3143 2 1.6322711536922512e+01 8.5817333978861949e+00 7.5735890539903594e-01 0 0 0
3144 2 1.4062643761869920e+01 7.6081221752103430e+00 1.9725916804593719e+00 0 0 0
3149 2 1.8660010986828954e+01 9.7089541699544988e+00 3.5924478537494271e+00 0 0 0
3152 2 2.0340197351105665e+01 8.2986667963424754e+00 2.0973019713396988e+00 0 0 0
238 1 4.9773153826573612e+01 1.5611475815100748e+01 9.8609676077957200e+00 0 0 0
3157 2 2.5010196066703390e+01 9.4990434772336485e+00 3.7623836092910294e+00 0 0 0
3160 2 2.6767812739907768e+01 7.8012090128262486e+00 2.6187094952828169e+00 0 0 0
3159 2 2.7986335195652348e+01 9.6024321692204087e+00 1.0513818094329463e+00 0 0 0
52 1 3.2578990661546527e+01 7.6624196890792424e+00 2.1923353309612366e+00 0 0 0
53 1 3.2992241713423105e+01 9.4782604068689125e+00 2.0575527470771060e-01 0 0 1
3670 2 2.1799885849555633e+01 2.4967084710030722e+01 3.4116750383762144e+00 0 0 0
55 1 3.5232836456250389e+01 7.3215131178088724e+00 2.4005278643823287e+00 0 0 0
56 1 3.9839688834257174e+01 8.0515959725968393e+00 2.4538014335312286e+00 0 0 0
3678 2 2.9148982661376394e+01 2.4708425330950025e+01 4.3746035924339663e+00 0 0 0
151 1 4.1377862224100845e+01 7.0174336276678133e+00 9.9553013583176035e+00 0 0 0
59 1 4.4438007998694864e+01 7.5904097307187470e+00 2.3552411188850444e+00 0 0 0
3760 2 1.2536221446872823e+01 2.4905552236316588e+01 6.3943692589285321e+00 0 0 0
61 1 4.7053050848188086e+01 8.2055374655286766e+00 2.1198445325484987e+00 0 0 0
3166 2 1.7083617032696687e+00 1.2971345422771476e+01 9.4322750248904541e-01 0 0 0
3165 2 3.4615167068979424e+00 1.2698557556188094e+01 3.2257689485128016e+00 0 0 0
3131 2 5.1557166483072505e+00 1.1035642020074317e+01 1.8853581940694928e+00 0 0 0
3168 2 7.3702647893006974e+00 1.1850072453156697e+01 6.7947011163950055e-01 0 0 0
3170 2 8.2985129253720658e+00 1.4383571003361416e+01 1.5847529073999331e+00 0 0 0
3169 2 9.5381936405793528e+00 1.2507361709620442e+01 3.3431217432354714e+00 0 0 0
3139 2 1.1253241333887638e+01 1.1075058862175952e+01 1.8033735357151743e+00 0 0 0
3172 2 1.2678160375071831e+01 1.3121491576139622e+01 7.1227978671259629e-01 0 0 0
3173 2 1.5668073473106830e+01 1.2591380678854696e+01 3.7553353535731300e+00 0 0 0
3174 2 1.4431421124183412e+01 1.4378182224542897e+01 2.2694483082155985e+00 0 0 0
3147 2 1.6998896072316924e+01 1.1191143356496832e+01 1.9047139885407716e+00 0 0 0
3176 2 1.8530196087485788e+01 1.3359711523868720e+01 1.1825290674790361e+00 0 0 0
3178 2 2.0768186979969386e+01 1.4674899592425207e+01 2.3221497628417063e+00 0 0 0
3155 2 2.3572436278500806e+01 1.1020885717798171e+01 1.9972278883076744e+00 0 0 0
3177 2 2.2063784311847940e+01 1.2730279604302925e+01 3.6134116790927688e+00 0 0 0
3163 2 2.9597681255507510e+01 1.1343323455003928e+01 2.5058016224351363e+00 0 0 0
3182 2 2.6842081188530596e+01 1.4772881382400971e+01 1.9780306433147772e+00 0 0 0
72 1 3.3321359970725553e+01 1.2783881989314269e+01 2.9709537988613715e+00 0 0 0
3164 2 3.0949883576575139e+01 1.3305963491053378e+01 1.2862440653490830e+00 -1 0 0
73 1 3.4686512433005184e+01 1.0983633643960875e+01 1.6974262062851622e+00 0 0 0
74 1 3.6809214825789674e+01 1.2418163324531609e+01 7.0596841136240940e-01 0 0 0
75 1 3.7986333262582065e+01 1.1697246904999769e+01 3.2325817946973658e+00 0 0 0
76 1 4.0726459454900464e+01 1.2287277487191451e+01 1.9697336080038406e+00 0 0 0
79 1 4.4533998955316171e+01 1.2322117681960487e+01 2.9172610572507209e+00 0 0 0
80 1 4.8718487151761984e+01 1.3504188830872526e+01 1.3276934231012165e+00 0 0 0
3587 2 4.7069447593192253e+00 1.6963508560489299e+01 1.8348773739558129e+00 0 0 0
3589 2 1.0818783017809752e+01 1.5266724416470966e+01 6.3210128862948545e-01 0 0 0
3591 2 1.1582681440917460e+01 1.7446509343981443e+01 2.1099340589450870e+00 0 0 0
3593 2 1.6625480234413985e+01 1.5281576783796263e+01 8.5531540902680814e-01 0 0 0
3596 2 1.8925112519627692e+01 1.5869944367656579e+01 3.8812774122543123e+00 0 0 0
3595 2 1.7508139475393879e+01 1.7392091891471239e+01 2.2482721927894289e+00 0 0 0
3599 2 2.2617350228860321e+01 1.6872709526705290e+01 1.9591845289799323e+00 0 0 0
3603 2 2.8746594113243077e+01 1.6901778770636700e+01 1.8759838178148560e+00 0 0 0
3584 2 3.0811707346820256e+01 1.5646253686740772e+01 3.0295916355352865e+00 -1 0 0
96 1 3.3788296361917133e+01 1.5356467406640160e+01 1.6213202624455667e+00 0 0 0
97 1 3.4936325628929552e+01 1.7716164207945607e+01 2.8288760958362626e+00 0 0 0
98 1 3.9058125592855212e+01 1.4601910296250621e+01 1.2151763741343737e+00 0 0 0
99 1 3.8873233025226789e+01 1.5735672062725611e+01 3.7654378193407685e+00 0 0 0
100 1 4.2763441786827400e+01 1.6967360639272236e+01 2.7446228423098695e+00 0 0 0
101 1 4.1390683996169862e+01 1.5890544100206778e+01 4.0115756872009506e-01 0 0 1
102 1 4.7631956693857930e+01 1.6072463578683628e+01 1.5846802661852510e+00 0 0 0
3606 2 3.1629343933102740e+00 1.8576578853025318e+01 3.3544578875821904e+00 0 0 0
3608 2 1.6274099853774786e+00 1.9731894369878290e+01 1.4864443747783898e+00 0 0 0
3616 2 8.1643206929461627e+00 2.0053679935441661e+01 1.6004944249813147e+00 0 0 0
3622 2 1.5557453258728742e+01 1.8796276833547793e+01 3.4346294090820209e+00 0 0 0
3624 2 1.3397940893159614e+01 1.9493988481774910e+01 1.6237134414461825e+00 0 0 0
3630 2 2.1833617600872351e+01 1.8932084696475957e+01 3.5415043384961757e+00 0 0 0
3632 2 2.0336442984817523e+01 2.0510668016977593e+01 2.0261809360456509e+00 0 0 0
3640 2 2.6677123442092149e+01 2.1265652189126406e+01 1.5992641527993052e+00 0 0 0
3636 2 2.5592692903109366e+01 1.8003000848192055e+01 6.8379252022110693e-01 0 0 0
111 1 3.4552285886412186e+01 2.0500735738292807e+01 3.0087609675755358e+00 0 0 0
112 1 3.6639850620904184e+01 1.8003403652875175e+01 5.6343495924234299e-01 0 0 0
113 1 3.8896686851990466e+01 1.9317798547523374e+01 1.3716083455990886e+00 0 0 0
114 1 4.0615881457259732e+01 1.8590955454295795e+01 3.4107433927401747e+00 0 0 0
115 1 4.2467670445773805e+01 2.0656849941865456e+01 2.9859732807213430e+00 0 0 0
116 1 4.4387286215504488e+01 1.8503020095757549e+01 7.7823378290824252e-01 0 0 0
117 1 4.9037861292183983e+01 1.8338530667617491e+01 8.6865425302337318e-01 0 0 0
118 1 4.6815249723369689e+01 1.9993303911650422e+01 5.8048744878423619e-01 0 0 0
3605 2 7.1493581641890469e-01 2.2131051461600006e+01 2.3427084964742848e+00 0 0 0
3611 2 5.3345977690886937e+00 2.3590553309341043e+01 1.2318717418776979e+00 0 0 0
3615 2 9.5196848233564779e+00 2.2193395472144623e+01 4.5080283966476892e-01 0 0 0
3621 2 1.2606795858623205e+01 2.1586770314766660e+01 3.4324379298371217e+00 0 0 0
3619 2 1.0830497444662459e+01 2.3307767088987678e+01 2.4262275192036267e+00 0 0 0
4 1 3.6801963934935124e+01 2.1465074435415833e+01 6.5914117423450636e+00 0 0 0
3627 2 1.7234488256798073e+01 2.3378946882119827e+01 1.1756515352399184e+00 0 0 0
3629 2 1.8577823314655340e+01 2.2035507533824056e+01 3.3271674692608784e+00 0 0 0
3 1 3.8786378111444868e+01 2.3011412569603461e+01 7.4582055245485535e+00 0 0 0
3637 2 2.4923299404894067e+01 2.2313409757740327e+01 3.3177473329318397e+00 0 0 0
3635 2 2.3236620393442667e+01 2.3668842558702053e+01 1.5777973511978771e+00 0 0 0
3762 2 1.5572893372913695e+01 2.4913636557918363e+01 9.6143552592695620e+00 0 0 0
3643 2 3.0512900121764545e+01 2.3540546895093097e+01 8.1781718956484062e-01 0 0 0
131 1 3.4124576896569707e+01 2.2275416656362633e+01 9.3538981896979900e-01 0 0 0
132 1 3.5558630087092965e+01 2.4366782558911549e+01 2.3144061964411349e+00 0 0 0
133 1 3.9219743435841949e+01 2.1931671863377066e+01 6.4802175216873603e-01 0 0 0
134 1 3.7890514382759861e+01 2.2905968284789662e+01 2.7220540662586630e+00 0 0 0
135 1 4.1947416806175823e+01 2.1830109066714339e+01 4.6925228171625460e-01 0 0 1
136 1 4.4206846860924394e+01 2.3879464008896932e+01 2.1328423298036023e+00 0 0 0
137 1 4.6112454155987535e+01 2.1920485606560060e+01 2.4348444759190069e+00 0 0 0
3187 2 3.0869433035354255e+00 3.3484490593837593e+00 6.7452715818536042e+00 0 0 0
3090 2 4.7483758317563387e+00 1.9107476462138642e+00 5.3119242584231303e+00 0 0 0
3192 2 5.6006259396798725e+00 4.8720948708651352e-01 7.3758270344263837e+00 0 0 0
3195 2 9.3502979788526535e+00 3.2426520576951217e+00 6.8431019663252899e+00 0 0 0
3098 2 1.0895226466683502e+01 1.5158456195068515e+00 5.2981323732209349e+00 0 0 0
3200 2 1.1760736140825756e+01 5.5857115719959238e-01 7.7922037727474471e+00 0 0 0
3106 2 1.7441654466069778e+01 1.9959832831471269e+00 5.1110367044355467e+00 0 0 0
3208 2 1.8955196898314078e+01 4.6927501231711777e-01 6.7236598615210310e+00 0 0 0
3211 2 2.1744636066853587e+01 3.6579300875594951e+00 6.7897378117701210e+00 0 0 0
3114 2 2.3143630787869672e+01 1.9689607274862408e+00 5.3587058989635050e+00 0 0 0
3122 2 3.0466086921819006e+01 2.8118544015578015e+00 4.3849519602790377e+00 0 0 0
3219 2 2.9195635530220446e+01 3.5316039046447609e+00 6.6131859352078060e+00 0 0 0
149 1 3.3128752040921228e+01 2.2945595348616719e+00 4.2800963159679970e+00 0 0 0
148 1 3.4860132250103177e+01 2.3698125950781206e+00 6.3951543212214172e+00 0 0 0
146 1 3.9490771852016671e+01 2.3838927468069895e+00 5.4155362837806074e+00 0 0 0
147 1 3.7159222295896171e+01 9.2852214607745476e-01 5.5989117220339724e+00 0 0 0
145 1 4.1916448441599606e+01 1.0780695691418818e+00 4.8631077271411165e+00 0 0 0
143 1 4.6155250712582074e+01 2.9040860668219142e+00 4.7595364129520874e+00 0 0 0
144 1 4.3676173727025095e+01 2.7281842406733738e+00 3.5033838349458319e+00 0 0 0
142 1 4.7348317292991183e+01 6.9895153191146986e-01 5.8672663260106486e+00 0 1 0
3089 2 1.8603931021335482e+00 4.3807669460490350e+00 4.7115077155497271e+00 0 0 0
3224 2 2.8106454766557948e-01 6.2739358979903912e+00 5.7283483088458587e+00 0 0 0
3232 2 6.3661092473610452e+00 6.4340185718297569e+00 6.6335745014858771e+00 0 0 0
3097 2 7.9429896460120535e+00 4.7912167731463908e+00 5.2105433103719037e+00 0 0 0
3240 2 1.2481262043080497e+01 6.3710434366359729e+00 6.5909506937197442e+00 0 0 0
3105 2 1.4025503626641715e+01 4.6855243977570789e+00 5.1835912746344022e+00 0 0 0
3142 2 1.5589527583602523e+01 6.2602785705045694e+00 3.6630263730799224e+00 0 0 0
3248 2 1.8755946817118858e+01 6.6067745816089092e+00 6.6172011952079899e+00 0 0 0
3113 2 2.0303797988809183e+01 5.0879692286476095e+00 5.0599564354465105e+00 0 0 0
3121 2 2.6552249170368242e+01 4.5071489192744005e+00 5.6871618998378990e+00 0 0 0
141 1 3.6293987076141583e+01 5.2119327047123427e+00 3.8442356136222440e+00 0 0 0
140 1 3.8808552126537613e+01 4.0231539667824920e+00 3.4104747102022488e+00 0 0 0
139 1 4.3218142744555792e+01 5.4491877915233768e+00 3.6795710981429708e+00 0 0 0
138 1 4.3682975159711788e+01 6.1747568845979410e+00 6.2395135664887382e+00 0 0 0
129 1 4.8402359951834853e+01 5.2596899283484175e+00 7.5485189647194275e+00 0 0 0
130 1 4.8721275441511722e+01 6.3614309655178642e+00 3.2184777128373527e+00 0 0 0
3227 2 3.4333824991398827e+00 9.5149395496472540e+00 6.4514011403692768e+00 0 0 0
3130 2 4.8881241531129023e+00 7.8910298256647318e+00 4.9949812954160207e+00 0 0 0
3235 2 9.4500772797815209e+00 9.4711087276349417e+00 6.5044632039783847e+00 0 0 0
3138 2 1.0929953485688259e+01 7.8545851566330036e+00 4.9094484056114620e+00 0 0 0
3243 2 1.5603760679370030e+01 9.5214889409575303e+00 6.6637946003114283e+00 0 0 0
3146 2 1.7126066490456274e+01 8.0248033420872655e+00 5.0650621220990564e+00 0 0 0
3251 2 2.1871437243334874e+01 9.6757199394776006e+00 6.6911789854888886e+00 0 0 0
3154 2 2.3434120563375846e+01 8.0294132083369458e+00 5.2697371179978765e+00 0 0 0
3259 2 2.8168362773504974e+01 9.6222583335830816e+00 6.8078110377054442e+00 0 0 0
128 1 3.1964767604641384e+01 8.4440071318987791e+00 4.7371845549171114e+00 0 0 0
3162 2 2.9715809376143689e+01 7.5599804299613300e+00 5.8659676785083175e+00 0 0 0
45 1 3.3767607636736763e+01 7.5834391678730384e+00 6.6044567042553410e+00 0 0 0
126 1 3.5630753982231163e+01 9.4863200169637505e+00 6.3499088980692076e+00 0 0 0
127 1 3.6211347890337272e+01 9.5574750508778958e+00 3.7158451353548299e+00 0 0 0
125 1 3.8187399852975204e+01 7.4638848040917596e+00 4.4655288219868483e+00 0 0 0
123 1 4.1020015874067404e+01 1.0090321446020257e+01 3.6302659039701455e+00 0 0 0
124 1 3.9747099500022827e+01 1.0558482170306174e+01 6.0294388342493477e+00 0 0 0
121 1 4.4080583851933582e+01 8.9131131783173529e+00 6.3373712381067442e+00 0 0 0
122 1 4.3657867223711150e+01 9.8072974157877937e+00 3.7271353948865600e+00 0 0 0
120 1 4.7811924558902312e+01 9.9761107021170830e+00 4.0271233726660745e+00 0 0 0
3129 2 2.0787522383981494e+00 1.1157474607036235e+01 4.9153809013602565e+00 0 0 0
3167 2 4.8880320495548455e+00 1.4252279352457531e+01 4.9071126317417963e+00 0 0 0
3268 2 6.3649705576548907e+00 1.2580767740796857e+01 6.4495723405794738e+00 0 0 0
3137 2 7.9153497087768470e+00 1.0941099645279834e+01 4.8722564793515168e+00 0 0 0
3171 2 1.1008554045301887e+01 1.4109992152421457e+01 5.0266505529260694e+00 0 0 0
3272 2 1.2513887036585027e+01 1.2580484591171901e+01 6.6188776587876994e+00 0 0 0
3145 2 1.4029416593003338e+01 1.0980355734200398e+01 5.0945515611509125e+00 0 0 0
3175 2 1.7278422695391683e+01 1.4195959686599998e+01 5.2216813504382333e+00 0 0 0
3276 2 1.8807737305365272e+01 1.2665777263675505e+01 6.7242539975958406e+00 0 0 0
3153 2 2.0350255840612260e+01 1.1215035946255085e+01 5.0947791634458834e+00 0 0 0
3161 2 2.6525421552801141e+01 1.1149227171657731e+01 5.2390738601195190e+00 0 0 0
3179 2 2.3550242771430895e+01 1.4345279281815740e+01 5.1080102549578328e+00 0 0 0
3280 2 2.5020699597035343e+01 1.2791100665708070e+01 6.7009457933087635e+00 0 0 0
3181 2 2.7873036255033853e+01 1.2895298661941528e+01 3.6913988101707789e+00 0 0 0
3183 2 2.9533131915862732e+01 1.4415078816595795e+01 5.1118746164408142e+00 0 0 0
119 1 3.1596512049384941e+01 1.1136286400864371e+01 4.4670741050901004e+00 0 0 0
110 1 3.4623961545887880e+01 1.3506665923961792e+01 5.2352220950505028e+00 0 0 0
109 1 3.7280403083871406e+01 1.3690206797330427e+01 4.8187206207028357e+00 0 0 0
77 1 4.2163216840247813e+01 1.4159686423232349e+01 3.4138198683747216e+00 0 0 0
108 1 4.4758542819208976e+01 1.3852975284962433e+01 5.5549942608826601e+00 0 0 0
106 1 4.8542600629923669e+01 1.3823704816965567e+01 5.5101861647816790e+00 0 0 0
107 1 4.7324887454727666e+01 1.2531106994276458e+01 3.4440759024508383e+00 0 0 0
3685 2 3.2254462754160378e+00 1.5724507688282628e+01 6.5517071726492810e+00 0 0 0
3586 2 1.6654051925920561e+00 1.7695249919360858e+01 5.5004782945356476e+00 0 0 0
3588 2 6.5390944006502520e+00 1.5664999622110093e+01 3.2881975638363210e+00 0 0 0
3689 2 9.4300261618374766e+00 1.5650733779357187e+01 6.5578390964053446e+00 0 0 0
3590 2 7.9747271358120102e+00 1.7197305549845399e+01 4.9289250062588161e+00 0 0 0
3592 2 1.2755688994559428e+01 1.5765442910940950e+01 3.7890822919883824e+00 0 0 0
3594 2 1.4234634656050499e+01 1.7325406087744007e+01 5.2481088627244050e+00 0 0 0
3693 2 1.5711672278354269e+01 1.5721156233934673e+01 6.7444791509697986e+00 0 0 0
3697 2 2.1922549234677074e+01 1.5836756884174301e+01 6.6695406139658218e+00 0 0 0
3598 2 2.0387275417451814e+01 1.7509304269975438e+01 5.2781347026898073e+00 0 0 0
3600 2 2.4887178968809732e+01 1.6001180121085504e+01 3.3757591237727280e+00 0 0 0
3602 2 2.6429248883011059e+01 1.7599574708970010e+01 4.9532507771018466e+00 0 0 0
3701 2 2.8088220696052520e+01 1.6130345654026286e+01 6.5795145985518237e+00 0 0 0
105 1 3.2505611443423746e+01 1.7346864426478614e+01 4.4395074309327800e+00 0 0 0
104 1 3.3802428868459366e+01 1.5875506655373810e+01 6.2419279223911781e+00 0 0 0
103 1 3.7090838013774736e+01 1.7596668643141793e+01 4.6919702205961329e+00 0 0 0
95 1 4.0768816403262676e+01 1.4770583724911647e+01 5.9481530429143303e+00 0 0 0
94 1 4.4406024518206003e+01 1.6509765202138627e+01 5.1373196822308067e+00 0 0 0
92 1 4.8902836332931265e+01 1.6542298506908629e+01 5.4927668611821145e+00 0 0 0
93 1 4.6798806178316291e+01 1.7308609573701514e+01 3.9072414976788323e+00 0 0 0
3610 2 4.9215618925530373e+00 2.0234332549186785e+01 4.5934389182364042e+00 0 0 0
3712 2 6.3457513773314718e+00 1.8759487301268468e+01 6.3799215192748617e+00 0 0 0
3614 2 9.5964414766997290e+00 1.8690906849406645e+01 3.4153594661398898e+00 0 0 0
3618 2 1.0994401739810291e+01 2.0253709272839888e+01 5.0588213166842992e+00 0 0 0
3720 2 1.2526590859824362e+01 1.8781054364708417e+01 6.6652511170883892e+00 0 0 0
3626 2 1.7115585954427029e+01 2.0428596046877502e+01 4.9336191864262915e+00 0 0 0
3728 2 1.8671832897355269e+01 1.8991421352975980e+01 6.6315614282924518e+00 0 0 0
3634 2 2.3463776053708020e+01 2.0599093749600730e+01 4.9030141326231584e+00 0 0 0
3736 2 2.4924291866389982e+01 1.9079021196084906e+01 6.5591767851692921e+00 0 0 0
3638 2 2.7776560686230919e+01 1.9149060649539550e+01 3.1462327733074504e+00 0 0 0
3642 2 2.9356347360681855e+01 2.0643837074717339e+01 4.7675326350384211e+00 0 0 0
3704 2 3.1316018614350920e+01 1.9225198235669609e+01 6.0369584965072685e+00 -1 0 0
91 1 3.2932953020395814e+01 2.1469797171618403e+01 4.9531652000898321e+00 0 0 0
89 1 3.9611658030993610e+01 1.8825630325762120e+01 5.9589081873550294e+00 0 0 0
90 1 3.7141204170739300e+01 2.0587747589274752e+01 4.0422856843565942e+00 0 0 0
87 1 4.4832727909574722e+01 1.9786968839286100e+01 6.5670384846842769e+00 0 0 0
88 1 4.5033273837868400e+01 1.9775654394206004e+01 3.7968151296615686e+00 0 0 0
3609 2 2.2243405990667533e+00 2.3363919435631594e+01 4.2340838244873984e+00 0 0 0
3707 2 3.3610449979973667e+00 2.1785236041540657e+01 6.0963654629405717e+00 0 0 0
3613 2 6.4961985439261980e+00 2.1774387012009512e+01 2.9747341124746258e+00 0 0 0
3617 2 7.7927085999462751e+00 2.3295110412521208e+01 4.8635823571142769e+00 0 0 0
3715 2 9.3870525719082050e+00 2.1845194202588338e+01 6.4644585976910340e+00 0 0 0
3625 2 1.4141385385095218e+01 2.3323413863055425e+01 4.8473828188830010e+00 0 0 0
3723 2 1.5596024621640467e+01 2.1886284914710494e+01 6.5413045895120980e+00 0 0 0
3633 2 2.0189470583732891e+01 2.3486112830735824e+01 4.9394030212768474e+00 0 0 0
3731 2 2.1824831816040305e+01 2.2036876184207671e+01 6.5025158563357994e+00 0 0 0
3641 2 2.6566390439292853e+01 2.3648762097769719e+01 5.1253172707771597e+00 0 0 0
3739 2 2.8127945174744461e+01 2.2082263123738084e+01 6.7174275700285815e+00 0 0 0
86 1 3.0764497630549950e+01 2.2714020311020931e+01 3.4959971452765952e+00 0 0 0
85 1 3.4605561694953920e+01 2.3058162257070713e+01 6.4226028532926751e+00 0 0 0
82 1 4.3291708161510748e+01 2.2035672189078628e+01 6.7137199509075627e+00 0 0 0
83 1 4.2421786046374905e+01 2.3208655177653462e+01 4.1465239134965923e+00 0 0 0
84 1 3.9969531990252250e+01 2.4319146152811623e+01 3.5715526736924521e+00 0 0 0
81 1 4.8213902570977055e+01 2.3068459686836448e+01 3.4711786060764753e+00 -1 0 0
3188 2 1.4288571431095147e+00 1.8118107720621190e+00 8.2188646140019053e+00 0 0 0
3185 2 4.9403570125280950e+01 3.4866546253328901e+00 9.4071125637378810e+00 -1 0 0
3186 2 3.5702328097593936e+00 6.9192308164465921e-01 9.4443016029231117e+00 0 0 0
3193 2 6.2460789036602655e+00 3.8290809809991684e+00 9.8228167769422114e+00 0 0 0
3196 2 7.6231385545287162e+00 2.0074011772174143e+00 8.5546302545961801e+00 0 0 0
3201 2 1.2513515970548974e+01 3.0425949966398877e+00 9.6128951793625212e+00 0 0 0
3204 2 1.4952356469597527e+01 1.8037420847709831e+00 8.8373788751174480e+00 0 0 0
3203 2 1.5790138843195646e+01 3.3367468843000805e+00 6.7453992443886266e+00 0 0 0
3209 2 1.8788282283962825e+01 3.5251483146316658e+00 9.7619584998937352e+00 0 0 0
3212 2 2.0484219352455476e+01 1.9147301962486651e+00 8.3782427137214164e+00 0 0 0
3210 2 2.2689727923041549e+01 5.2765603480444367e-01 9.3945088443268769e+00 0 0 0
3217 2 2.4899783374738497e+01 3.7129504828085342e+00 9.8911687272182682e+00 0 0 0
3218 2 2.8361824903782484e+01 1.2896422103432947e+00 8.1964120201156057e+00 0 0 0
3220 2 2.5995815107544129e+01 2.4934271784390520e+00 7.8149066713662441e+00 0 0 0
78 1 3.3676137246824005e+01 2.3538970923556364e+00 8.9778182352786366e+00 0 0 0
50 1 3.8800324546801860e+01 1.1955979567671186e-01 9.4871392337995761e+00 0 0 0
71 1 3.9342378266007778e+01 2.7470073223023657e+00 9.8589202438440395e+00 0 0 0
70 1 4.3001964834952453e+01 8.5331447234927282e-01 7.4597571895161359e+00 0 0 0
69 1 4.3098420251796099e+01 3.0235869545444523e+00 9.1378766553337023e+00 0 0 0
67 1 4.7078640210576125e+01 1.5371148712741893e+00 9.6150711240455990e+00 0 0 0
3226 2 2.9832439330396827e+00 6.5619740211765185e+00 9.6394547670795845e+00 0 0 0
3191 2 4.6235688652144562e+00 5.0769795727569447e+00 8.1502618794750852e+00 0 0 0
3234 2 9.4930992524999507e+00 6.5339797236791579e+00 9.7024048548001449e+00 0 0 0
3199 2 1.0993343894621127e+01 4.8381882263309341e+00 8.2170787583486327e+00 0 0 0
3242 2 1.5585188650050586e+01 6.4717974343504112e+00 9.7256046031935206e+00 0 0 0
3207 2 1.7259985057488816e+01 5.0457689076062255e+00 8.1729070671540729e+00 0 0 0
3250 2 2.1785032238968874e+01 6.7159855794022167e+00 9.8357377578608620e+00 0 0 0
3215 2 2.3300160905898501e+01 5.1699594974102174e+00 8.3447180196004265e+00 0 0 0
3256 2 2.5037046667124343e+01 6.5120169722512040e+00 6.8333159531556049e+00 0 0 0
3258 2 2.8422920942611384e+01 6.7913560955899106e+00 9.7091915595552205e+00 0 0 0
3223 2 3.0197950380712154e+01 5.7130439181121151e+00 7.8580708670849129e+00 0 0 0
65 1 3.5328413992458295e+01 5.1095639671423285e+00 6.3403854165640503e+00 0 0 0
66 1 3.2882579555295742e+01 5.0812789043296878e+00 8.4746874214953820e+00 0 0 0
63 1 3.7587360068466822e+01 5.8571095655738370e+00 7.5609431738447421e+00 0 0 0
64 1 3.9545613559056214e+01 4.0351427286430424e+00 7.5255284538002494e+00 0 0 0
62 1 4.1884059657716278e+01 5.1872551685330714e+00 8.0249540701320736e+00 0 0 0
48 1 4.5841987770461124e+01 4.5856131496604773e+00 6.8871022880911452e+00 0 0 0
49 1 4.5554488605333837e+01 3.9178468897861061e+00 9.7461104628525277e+00 0 0 0
2 1 3.8420661884950874e+01 2.4504902655364308e+01 9.7995049031672625e+00 0 0 0
3228 2 1.6718025563184953e+00 7.9070568722204948e+00 7.6365482222280665e+00 0 0 0
3225 2 2.2412934123962111e-01 1.0069256129850562e+01 8.5693665017300447e+00 0 0 0
3233 2 6.2985202437715078e+00 9.5783767281891574e+00 9.6688913340998877e+00 0 0 0
3236 2 7.8938780646974873e+00 8.0240048580436909e+00 8.1439965890048036e+00 0 0 0
3241 2 1.2511420882026226e+01 9.5601324135633501e+00 9.6986585677750448e+00 0 0 0
3244 2 1.4020295181965604e+01 7.9647502628550590e+00 8.1506060507251004e+00 0 0 0
3249 2 1.8692722718074936e+01 9.6306362388253870e+00 9.7769225159175654e+00 0 0 0
3252 2 2.0261534729830267e+01 8.1657398556767671e+00 8.2017524533109949e+00 0 0 0
3257 2 2.4990510728198693e+01 9.7453396702368593e+00 9.8033281136867352e+00 0 0 0
3260 2 2.6568646489605523e+01 8.1579182176116554e+00 8.3310775170577234e+00 0 0 0
44 1 3.3466668681298252e+01 9.4143284511968321e+00 9.3899804139385985e+00 0 0 0
43 1 3.8118419477738449e+01 8.6890224844188335e+00 7.2059565805869612e+00 0 0 0
28 1 4.2040722502954125e+01 1.0755354601302358e+01 7.3788584948640974e+00 0 0 0
40 1 4.4497565974049472e+01 1.1063236140251169e+01 9.5643516064915399e+00 0 0 0
41 1 4.3674062262500684e+01 8.3494251761585438e+00 9.3107337141429429e+00 0 0 0
38 1 4.7950983714779397e+01 7.8115297820027196e+00 8.3788910959617571e+00 0 0 0
39 1 4.6740054134695271e+01 9.4635210072840863e+00 6.5473200186812353e+00 0 0 0
3266 2 1.7028744401760381e+00 1.4189927485752552e+01 8.2181819392783417e+00 0 0 0
3265 2 3.1506570678374510e+00 1.2590761462620597e+01 9.7346552098858528e+00 0 0 0
3231 2 4.7906411285188888e+00 1.1126477152039294e+01 8.1071061649311122e+00 0 0 0
3270 2 7.8288979952790774e+00 1.4136416429744532e+01 8.0915462413043535e+00 0 0 0
3269 2 9.3742036450047284e+00 1.2615384514410966e+01 9.6687917270563748e+00 0 0 0
3239 2 1.0929869506311137e+01 1.1048155246310658e+01 8.1239654307768099e+00 0 0 0
3273 2 1.5616981205229466e+01 1.2655356183429408e+01 9.7342127035182759e+00 0 0 0
3274 2 1.4060976600282828e+01 1.4158046524398848e+01 8.1732594336306938e+00 0 0 0
3247 2 1.7162351580436962e+01 1.1117821265336174e+01 8.1868865161192996e+00 0 0 0
3277 2 2.1846744162984749e+01 1.2737025464362681e+01 9.7600982508370659e+00 0 0 0
3282 2 2.6553915735801020e+01 1.4472455025267003e+01 8.1175906060985028e+00 0 0 0
3255 2 2.3434109462230829e+01 1.1241070649581435e+01 8.2206520456135621e+00 0 0 0
3281 2 2.8031270359202864e+01 1.2952137369720718e+01 9.7350943511047880e+00 0 0 0
3263 2 2.9585094249912736e+01 1.1306400609617757e+01 8.3716948186475921e+00 0 0 0
3264 2 3.1009218971456818e+01 1.2746283408117897e+01 6.6790079230078208e+00 -1 0 0
31 1 3.4433148544011189e+01 1.3176680405943518e+01 9.1016108349932807e+00 0 0 0
32 1 3.3967608833417103e+01 1.1442054365146221e+01 7.0778084835992630e+00 0 0 0
29 1 3.9290735106541710e+01 1.3104134444295468e+01 9.8242457902680282e+00 0 0 0
30 1 3.8894081537381275e+01 1.3039388892022139e+01 6.8848026127964719e+00 0 0 0
27 1 4.2756608832852827e+01 1.3310993511904146e+01 7.2311431159077451e+00 0 0 0
12 1 4.6675517340484028e+01 1.3866882709508875e+01 7.4400835898192801e+00 0 0 0
13 1 4.3394522034843952e+01 1.3951287694037976e+01 9.9210449055652745e+00 0 0 0
25 1 5.2125922494425159e-01 1.2248864997834744e+01 6.8039668869797314e+00 1 0 0
26 1 4.6939229777132446e+01 1.1408558274501107e+01 8.5001178055179398e+00 0 0 0
3688 2 6.2408471082390049e+00 1.5686990137379954e+01 9.6503005431645157e+00 0 0 0
3687 2 4.8004569052475201e+00 1.7269142310334477e+01 8.0392416019383290e+00 0 0 0
3692 2 1.2494247158607061e+01 1.5702535470244635e+01 9.6994351115947541e+00 0 0 0
3691 2 1.0938821842264398e+01 1.7212683129009267e+01 8.1351420534800560e+00 0 0 0
3696 2 1.8752034712645809e+01 1.5797723614965308e+01 9.7280283371754948e+00 0 0 0
3695 2 1.7219499053175028e+01 1.7355455862822428e+01 8.2007586206315484e+00 0 0 0
3278 2 2.0341453025655596e+01 1.4281837758363494e+01 8.2019206833176934e+00 0 0 0
3699 2 2.3410719119061067e+01 1.7477016580834487e+01 8.1247419315437632e+00 0 0 0
3700 2 2.4889603600420116e+01 1.5875633976721044e+01 9.6512106416714136e+00 0 0 0