LAMMPS data file via write_data, version 12 Dec 2018, timestep = 100000

800 atoms
1 atom types

-1.0216408247826259e-01 2.4920164082478134e+01 xlo xhi
-1.2770510309773897e-01 3.1150205103097296e+01 ylo yhi
-1.2770510309773897e-01 3.1150205103097296e+01 zlo zhi

Masses

1 18.015

Atoms # atomic

5 1 1.3295736310410551e+00 1.7762053918053868e+00 1.5864950890070280e+00 0 0 0
413 1 1.8643821182237225e+01 1.5459987124606112e+01 2.8659925399315678e+00 0 0 0
409 1 1.2147834192580683e+01 1.5420397804856698e+01 3.4971472585398278e+00 0 0 0
1 1 5.1207024448636673e-02 -3.7801699324580995e-02 9.1893656196288559e-02 0 0 0
7 1 4.9561818748333044e+00 1.5719953102567441e+00 4.2005289713722416e+00 0 0 0
10 1 6.2974917405491935e+00 3.0752809905494161e+00 2.6415938739834401e+00 0 0 0
77 1 1.8789277803740930e+01 1.2785585164709332e+01 2.0868292398585686e-01 0 0 0
13 1 7.9845361050146249e+00 1.6319949074136535e+00 1.2761394617390074e+00 0 0 0
15 1 1.0841454668942660e+01 1.5136494154447264e+00 4.4865182411200992e+00 0 0 0
18 1 1.2361618696521740e+01 2.9331961522808498e+00 3.0395448605557855e+00 0 0 0
145 1 1.2538050398589054e-01 1.3055956486815866e+01 5.9335118620231988e+00 0 0 0
21 1 1.3779358741553125e+01 1.5648164939723173e+00 1.3340311480929186e+00 0 0 0
23 1 1.6864467259986668e+01 1.0946601574453771e+00 4.2799462696855688e+00 0 0 0
26 1 1.8674419018994833e+01 2.9528403181081964e+00 2.6247586967659595e+00 0 0 0
29 1 2.0531057590856179e+01 1.4512273546454117e+00 1.3948223758052991e+00 0 0 0
80 1 2.3230664831265344e+01 1.4494272228402277e+01 5.0038111209897860e+00 0 0 0
78 1 2.2094442479309812e+01 1.2431239442372254e+01 3.0931232337330616e+00 0 0 0
49 1 1.2534186695172897e+01 6.3954397397787659e+00 2.5334448775717539e-01 0 0 0
2 1 2.8632755884743233e-03 3.4075997491454739e+00 3.0503874536449098e+00 0 0 0
31 1 2.3380616410992509e+01 1.4204808195653804e+00 4.6532911425934529e+00 0 0 0
6 1 1.9018325646507357e+00 4.5640897199121495e+00 4.4591758693362458e+00 0 0 0
35 1 3.1805500715970711e+00 5.9770876327377538e+00 2.8964238890388314e+00 0 0 0
8 1 4.4352590156159994e+00 4.4693627810304299e+00 1.1101133412349611e+00 0 0 0
39 1 4.4633313342400678e+00 7.3469339160833425e+00 4.6713289209034992e+00 0 0 0
52 1 1.5717448979559618e+01 9.5590135567646826e+00 1.7057551515913877e-01 0 0 0
14 1 7.5169478404812526e+00 4.4100697239498379e+00 4.7852428251378392e+00 0 0 0
43 1 9.4464920201211822e+00 5.9121902488079368e+00 3.4938233582752618e+00 0 0 0
75 1 1.3804042956908408e+01 1.3957974836605455e+01 1.1623380640947583e+00 0 0 0
16 1 1.0969363566044162e+01 4.7770961107714252e+00 1.5692725444518190e+00 0 0 0
22 1 1.4128623831832240e+01 4.5483308074046462e+00 4.3367735094879771e+00 0 0 0
24 1 1.7147319343555488e+01 4.5702584804261077e+00 1.2002444427036318e+00 0 0 0
51 1 1.5881986683508991e+01 6.0711920232360956e+00 3.0668070749538852e+00 0 0 0
55 1 1.7250729402993692e+01 8.1170122575216741e+00 4.3781309726842510e+00 0 0 0
72 1 1.0214135608649903e+01 1.3532669962172591e+01 4.8158304474330107e+00 0 0 0
30 1 2.0196060986136771e+01 4.4711272029264091e+00 4.4118683134823735e+00 0 0 0
61 1 1.9907108809409785e+01 8.0638123177275620e+00 1.6181268004842477e+00 0 0 0
59 1 2.1483902210791257e+01 6.5985758160475809e+00 3.0777761904674841e+00 0 0 0
32 1 2.3156965675768468e+01 4.9069531210917559e+00 1.5644048909435124e+00 0 0 0
63 1 2.3534677504335676e+01 7.5089561842968635e+00 4.4904384737300180e+00 0 0 0
37 1 1.8451455290387568e+00 7.7059054543630916e+00 1.3825082295484661e+00 0 0 0
38 1 1.1745809793076400e+00 1.0560466372207152e+01 4.7093601514929819e+00 0 0 0
3 1 3.0656296227759290e+00 3.7040682230315231e-02 2.8077341118533345e+00 0 0 0
71 1 7.6089923762213578e+00 1.3787489227994904e+01 1.2352870641388156e+00 0 0 0
40 1 4.7733784330113398e+00 1.0754714684799955e+01 1.7494165735826346e+00 0 0 0
42 1 5.9460428572031176e+00 8.8714863925112084e+00 3.0748217714361794e+00 0 0 0
45 1 7.7034669059952474e+00 7.3402401298110265e+00 1.6548414055226330e+00 0 0 0
47 1 1.1241909212856676e+01 7.3325260278924445e+00 4.5535762890495990e+00 0 0 0
46 1 7.6665050275495545e+00 1.0663774432749198e+01 4.2687994751061620e+00 0 0 0
48 1 1.0980532618405311e+01 1.0645394633945021e+01 1.8780667713143449e+00 0 0 0
70 1 9.2291384319384893e+00 1.2130366210068759e+01 3.0498312499005653e+00 0 0 0
53 1 1.4489699046718970e+01 7.8728683701625695e+00 1.5890515421925577e+00 0 0 0
50 1 1.2841255161683540e+01 8.8597922812647685e+00 3.2969483291669226e+00 0 0 0
54 1 1.4077577557859401e+01 1.1128319675610237e+01 4.7994838922005307e+00 0 0 0
56 1 1.7290488931203498e+01 1.1269075169904378e+01 1.7085544502858341e+00 0 0 0
74 1 1.5456379984453697e+01 1.2445377680033436e+01 3.1194374232586082e+00 0 0 0
79 1 2.0365642267687626e+01 1.4200451324358966e+01 1.5795762588689475e+00 0 0 0
58 1 1.8626813678534724e+01 9.8509008860341911e+00 3.2966251067179480e+00 0 0 0
62 1 2.0373789716221602e+01 1.0722188307765936e+01 4.8210278678407343e+00 0 0 0
36 1 3.3438844696805936e+00 9.5519337665062647e+00 5.5930834932707285e-03 0 0 0
34 1 6.5482602855197469e-03 8.9778988014276582e+00 2.7179957328628013e+00 0 0 0
64 1 2.3395522857186378e+01 1.0811780304248087e+01 1.4619739044628164e+00 0 0 0
67 1 1.4376627124751622e+00 1.3839895243612824e+01 1.6264355840851583e+00 0 0 0
66 1 2.7088431568519198e+00 1.2158177234407264e+01 2.9745850278287693e+00 0 0 0
68 1 4.4772373045069775e+00 1.4074153492362521e+01 4.3934079390001086e+00 0 0 0
76 1 1.7259273572319970e+01 1.4269052528005362e+01 4.8068202192416667e+00 0 0 0
92 1 9.2620353642604716e+00 2.9449555521469519e+00 5.9868402773469001e+00 0 0 0
60 1 2.1634037667717493e+01 9.4093314648839446e+00 7.3282049813459038e-02 0 0 0
124 1 9.2253594845644837e+00 9.0591260981058230e+00 5.6976867651123566e+00 0 0 0
108 1 2.1879954556267656e+01 3.1415335512278162e+00 5.9086331432783901e+00 0 0 0
44 1 9.4754429727268512e+00 8.8838370480336781e+00 1.4708187665766637e-01 0 0 0
137 1 1.8483269208234304e+01 5.9224199214118958e+00 5.8924369270110155e+00 0 0 0
100 1 1.5473735509443847e+01 2.6564481580733048e+00 5.8543462720463744e+00 0 0 0
153 1 1.2646251186462326e+01 1.2885685186048059e+01 5.9636924849213839e+00 0 0 0
129 1 1.2838611740511407e+01 5.8385069404727252e+00 6.1201522301787490e+00 0 0 0
486 1 9.0351948636241950e+00 1.5431158267957994e+01 5.8366580049092205e+00 0 0 0
149 1 6.1503397488085447e+00 1.2400152431349136e+01 5.8651487197555277e+00 0 0 0
116 1 2.8288317881112093e+00 9.0257440191160914e+00 6.0043570324846494e+00 0 0 0
140 1 2.1855427418145588e+01 9.2070201658452202e+00 5.9203657923771065e+00 0 0 0
113 1 4.0094646115046928e-01 6.0753846594126619e+00 5.8354037716520661e+00 0 0 0
406 1 9.5329190564147019e+00 1.5471400409669398e+01 3.2099891311435869e-02 0 0 0
57 1 1.8575905303788190e+01 6.1811388391863318e+00 -6.8182916244868608e-02 0 0 0
85 1 1.8622316136182027e+00 1.2232729329181440e+00 8.1603725578940569e+00 0 0 0
82 1 1.9746270112200598e-01 2.7761103489227041e+00 9.0705114367649227e+00 0 0 0
160 1 2.3109816135734611e+01 1.3904077372357348e+01 1.0957973179678421e+01 0 0 0
87 1 4.8894863991214201e+00 1.2579615795556036e+00 1.1276717251352336e+01 0 0 0
90 1 6.5530562957248186e+00 2.7483548507929805e+00 9.7967466162650183e+00 0 0 0
93 1 7.5450373052301991e+00 1.3389168925071602e+00 7.5549109549508406e+00 0 0 0
157 1 1.8761735021891148e+01 1.2646432992633176e+01 6.5041801787936260e+00 0 0 0
204 1 9.4505779349210375e+00 9.4554023680285795e+00 1.2345624400911246e+01 0 0 0
95 1 1.0586927829566148e+01 1.1061283514452647e+00 1.1066984406619627e+01 0 0 0
98 1 1.2315786693013976e+01 2.6555870529558270e+00 9.3918170290325431e+00 0 0 0
101 1 1.3742786484861753e+01 1.2283021909535430e+00 7.4878758368360412e+00 0 0 0
132 1 1.5921723072851750e+01 9.2818376025655933e+00 6.4328074561395585e+00 0 0 0
103 1 1.7127610875790126e+01 1.1931039966373440e+00 1.0434630010299296e+01 0 0 0
209 1 1.2196263757754950e+01 6.0122234128241852e+00 1.2286800632622699e+01 0 0 0
158 1 2.1977001338353588e+01 1.2262481294811222e+01 9.3085453136981577e+00 0 0 0
106 1 1.8678388602446162e+01 3.0220328349358940e+00 9.0734496820416570e+00 0 0 0
109 1 2.0496944405224546e+01 1.6780489353017589e+00 7.6050758529709164e+00 0 0 0
107 1 2.1883816000562263e+01 -8.9953808794273726e-02 9.2739505630453216e+00 0 0 0
111 1 2.3101262935721763e+01 1.4940009616057581e+00 1.0830215700841055e+01 0 0 0
151 1 7.4422963653699030e+00 1.4248781029715783e+01 7.4773719824162077e+00 0 0 0
121 1 6.2082847862076225e+00 5.7230072233564702e+00 6.5778468039233013e+00 0 0 0
86 1 1.4977944736565265e+00 4.5750232513033087e+00 1.0752202237659457e+01 0 0 0
115 1 3.1857889654918177e+00 5.9930532121680402e+00 9.3991235713189525e+00 0 0 0
88 1 4.8736989829745481e+00 4.1889161115527918e+00 8.3112002065606223e+00 0 0 0
119 1 4.5802917926010034e+00 7.4529025411421976e+00 1.0958691642188359e+01 0 0 0
152 1 1.0710201394221111e+01 1.4013290930498027e+01 1.0599421270844626e+01 0 0 0
94 1 7.6505309795289582e+00 4.8148176189183287e+00 1.0730056929676293e+01 0 0 0
123 1 9.4456740648166271e+00 6.2557687627796925e+00 9.3191442625250946e+00 0 0 0
125 1 7.7586474086284696e+00 7.7789211157081120e+00 7.9262599781601963e+00 0 0 0
96 1 1.0779390003918211e+01 4.3002453450808487e+00 7.5947204100061398e+00 0 0 0
102 1 1.3812223571680422e+01 4.0761136711531583e+00 1.0672844865399471e+01 0 0 0
154 1 1.5690482339588851e+01 1.2269207800017737e+01 9.4489095495046751e+00 0 0 0
104 1 1.6970687494138652e+01 4.2130451057589982e+00 7.3608578581795223e+00 0 0 0
131 1 1.5234642766272369e+01 5.6579949302452910e+00 8.8592429777568800e+00 0 0 0
135 1 1.6815897970210166e+01 7.2408393243416160e+00 1.0918175792680513e+01 0 0 0
159 1 2.0179244579153064e+01 1.4189743445644421e+01 8.1495613103948994e+00 0 0 0
110 1 2.0018803584404189e+01 4.5771155487882886e+00 1.0415407719992000e+01 0 0 0
141 1 2.0191809222321581e+01 7.3923003658807325e+00 7.4386013436112082e+00 0 0 0
148 1 4.7715185451138220e+00 1.4153822372369762e+01 1.0731854160236916e+01 0 0 0
139 1 2.1886527783216508e+01 5.8792629451942453e+00 9.0466562666886556e+00 0 0 0
112 1 2.3514732949752343e+01 4.5319376184568307e+00 7.3937230164966765e+00 0 0 0
143 1 2.3399220302083144e+01 7.3863661160626091e+00 1.0523257545558190e+01 0 0 0
155 1 1.3969280191564199e+01 1.3739101962941275e+01 8.0777943857194892e+00 0 0 0
146 1 2.9792858459002520e+00 1.2820077736373857e+01 9.2788407301232336e+00 0 0 0
117 1 1.7912061490862639e+00 7.4261374263617661e+00 7.6867344589630839e+00 0 0 0
118 1 1.6783817687720672e+00 1.1231904116987351e+01 1.0761632845275461e+01 0 0 0
147 1 1.5001190731476073e+00 1.4333589598177314e+01 7.6754049779181530e+00 0 0 0
120 1 4.5815526092181766e+00 1.0710279429878891e+01 7.6234394771589429e+00 0 0 0
122 1 6.2196397178588319e+00 9.3732521008567904e+00 9.4946407945626206e+00 0 0 0
126 1 7.8546514524721713e+00 1.1243242919192131e+01 1.1176362478917673e+01 0 0 0
150 1 9.1622719123784400e+00 1.2555107531436871e+01 8.9168048972968261e+00 0 0 0
127 1 1.0877144942826133e+01 7.8798704672435864e+00 1.0699114772391123e+01 0 0 0
133 1 1.4039300571777103e+01 7.7252009173173812e+00 7.5485036068430142e+00 0 0 0
128 1 1.0932607811680025e+01 1.0685763782545060e+01 7.3425782541912792e+00 0 0 0
130 1 1.2500700067839340e+01 9.2730296429230741e+00 9.2125740619913721e+00 0 0 0
134 1 1.4114403555433139e+01 1.0752877735716154e+01 1.0982676255524362e+01 0 0 0
136 1 1.7121181794569729e+01 1.0880360986137145e+01 8.1464915650986462e+00 0 0 0
138 1 1.8602786411765152e+01 8.8795870446426832e+00 9.4981082202193932e+00 0 0 0
142 1 2.0324179146287229e+01 1.0639326611349579e+01 1.0779972324691498e+01 0 0 0
114 1 3.6348958966690459e-01 8.9429578906110709e+00 9.1876438617303879e+00 0 0 0
144 1 2.3725073792325716e+01 1.0992312426141986e+01 7.4410700046600669e+00 0 0 0
156 1 1.6910322116101632e+01 1.3978287850786261e+01 1.1135155073340689e+01 0 0 0
489 1 1.2509442974644731e+01 1.5413987252018940e+01 9.1386910262011227e+00 0 0 0
188 1 2.1653200292302941e+01 3.2957033657696471e+00 1.2266383358225623e+01 0 0 0
193 1 1.9382789316269294e-01 6.2113012584117362e+00 1.2163848521922832e+01 0 0 0
217 1 1.8840310729832545e+01 6.2168725977022943e+00 1.2318282648169559e+01 0 0 0
161 1 2.4636048730517480e+01 1.7022428546711937e-01 1.2193106133878517e+01 -1 0 0
225 1 -5.2872438692985815e-02 1.2710580156051831e+01 1.2360414507981197e+01 0 0 0
185 1 1.8800956564472934e+01 2.3022078664632462e-02 1.2043763154462933e+01 0 0 0
84 1 3.3597246634294136e+00 2.8274805399696330e+00 6.2601607886012012e+00 0 0 0
220 1 2.2013318804810268e+01 9.2572120673730751e+00 1.1872323631266429e+01 0 0 0
180 1 1.5682321328671499e+01 2.8256802026242074e+00 1.2056392679944297e+01 0 0 0
229 1 5.9045576153374384e+00 1.2559581154086224e+01 1.2325594911230972e+01 0 0 0
233 1 1.2311944612074891e+01 1.2249692052038570e+01 1.2063164616861989e+01 0 0 0
196 1 3.0090490406287160e+00 9.4856006552355900e+00 1.2245693221445444e+01 0 0 0
212 1 1.5575036238819820e+01 9.0066204866054829e+00 1.2207719888966230e+01 0 0 0
490 1 1.5152610475024082e+01 1.5155030400671373e+01 6.1741215878775932e+00 0 0 0
165 1 1.4381192997854975e+00 1.3089288127393786e+00 1.3772098225884793e+01 0 0 0
162 1 1.0106993815787579e-01 3.2292257874049222e+00 1.5071273971756513e+01 0 0 0
574 1 2.1782140099879577e+01 1.5483633143355595e+01 1.2403500922049448e+01 0 0 0
171 1 9.3007739183721228e+00 -2.8170607151874805e-02 1.5576409359333287e+01 0 0 0
167 1 4.7193896693858388e+00 1.1560191118460263e+00 1.7083395921505087e+01 0 0 0
170 1 6.1189251237820903e+00 3.1371905651656364e+00 1.5696669167052333e+01 0 0 0
201 1 6.0343011212174291e+00 5.9607117674407144e+00 1.2566497808673882e+01 0 0 0
187 1 2.1850015040706339e+01 8.6840672544321956e-02 1.5237547709715068e+01 0 0 0
173 1 7.7781182886742011e+00 1.6283348130124413e+00 1.4124367426988018e+01 0 0 0
268 1 2.2178263896226966e+01 3.3039881373669431e+00 1.8270794788953378e+01 0 0 0
175 1 1.1057743928547447e+01 1.9144657943000856e+00 1.6869826561160298e+01 0 0 0
178 1 1.2901384930268932e+01 3.0150372468573758e+00 1.5248779404824505e+01 0 0 0
181 1 1.4424935911806841e+01 1.1972179859333472e+00 1.3846369327650430e+01 0 0 0
183 1 1.7506458304633504e+01 1.3330638380874036e+00 1.6905820668666195e+01 0 0 0
569 1 1.2378223142631040e+01 1.5419755581572256e+01 1.5939880191441087e+01 0 0 0
186 1 1.8959980098016622e+01 3.0921022920512478e+00 1.5421392340973835e+01 0 0 0
189 1 2.0285581949752462e+01 1.7379701016161564e+00 1.3576484413852222e+01 0 0 0
191 1 2.3859913426293460e+01 1.5302372041026295e+00 1.6740380878626528e+01 0 0 0
238 1 2.2238323315573119e+01 1.2335683656084896e+01 1.5267870647895995e+01 0 0 0
166 1 1.3357719938869352e+00 4.6158184712392885e+00 1.7171453661281422e+01 0 0 0
195 1 2.8772223716313348e+00 5.9734761723503498e+00 1.5673616700326260e+01 0 0 0
197 1 1.5387059983216071e+00 7.6878457900759010e+00 1.3692723120200075e+01 0 0 0
168 1 4.5248713840779287e+00 4.4176852773194488e+00 1.4160461164828945e+01 0 0 0
235 1 1.3877311256698295e+01 1.4112689905374165e+01 1.3804440154524825e+01 0 0 0
252 1 9.2201568435175538e+00 3.2203705015739406e+00 1.8614329898468089e+01 0 0 0
174 1 7.7779210044636802e+00 4.6845353499810347e+00 1.7410415079101433e+01 0 0 0
203 1 9.3863362008730000e+00 6.1136285929756706e+00 1.5428388560588255e+01 0 0 0
205 1 7.7639076269541514e+00 7.8286901928939931e+00 1.3757526830277383e+01 0 0 0
241 1 -2.5580729941492991e-02 1.2154702403696069e-01 1.8620583838621389e+01 0 0 0
176 1 1.0908704822578665e+01 4.5852014863248014e+00 1.4027098788953399e+01 0 0 0
182 1 1.4230015460772609e+01 4.2978540651634338e+00 1.7210887074124095e+01 0 0 0
213 1 1.3892591401966827e+01 7.8025511995337968e+00 1.3828448103243730e+01 0 0 0
211 1 1.5214655523435075e+01 6.1470202432541186e+00 1.5460244685294970e+01 0 0 0
184 1 1.7158977412115334e+01 4.4421404294700526e+00 1.3766567714268868e+01 0 0 0
215 1 1.7130193761855999e+01 7.5708841381664662e+00 1.7220811722607490e+01 0 0 0
190 1 2.0353077368938017e+01 4.7861933271375943e+00 1.6638160724857009e+01 0 0 0
234 1 1.5459232968564301e+01 1.1962460722359769e+01 1.5099528091554026e+01 0 0 0
219 1 2.1785729191004194e+01 6.4660329472620139e+00 1.5279489164326471e+01 0 0 0
192 1 2.3277862877237133e+01 4.9550355941782023e+00 1.3495314760251803e+01 0 0 0
223 1 2.3177653208476329e+01 7.8302156516569044e+00 1.6901089533287585e+01 0 0 0
198 1 1.1425970516346138e+00 1.1112415243250055e+01 1.6900535437163303e+01 0 0 0
194 1 2.4858549559061466e+01 9.3002354620221919e+00 1.5440877164337287e+01 -1 0 0
231 1 7.8281913056088950e+00 1.3716579644866286e+01 1.4120090004340568e+01 0 0 0
199 1 4.0750663009019368e+00 7.9610882074104943e+00 1.6835603165923192e+01 0 0 0
200 1 4.5977544177206715e+00 1.0983720096371091e+01 1.3800228571681670e+01 0 0 0
202 1 6.0094474636682440e+00 9.0768435022218590e+00 1.5589988167737410e+01 0 0 0
230 1 9.3613020510084031e+00 1.2166252000071863e+01 1.5689300584904929e+01 0 0 0
206 1 7.3018789829957518e+00 1.0849216371021900e+01 1.7253188597095260e+01 0 0 0
207 1 1.1040481319363604e+01 7.4475935400995015e+00 1.7010846354287359e+01 0 0 0
208 1 1.0925571963391100e+01 1.0950386034694237e+01 1.3999573804940443e+01 0 0 0
210 1 1.2396617197682792e+01 9.2103738966502107e+00 1.5479532612549979e+01 0 0 0
214 1 1.3882391266710462e+01 1.0803039965781210e+01 1.6850188292365665e+01 0 0 0
232 1 1.0667063963598036e+01 1.3898285389957975e+01 1.7141441807569333e+01 0 0 0
216 1 1.7261130100056185e+01 1.0758364617013088e+01 1.3613862796830738e+01 0 0 0
239 1 2.0612065509985619e+01 1.3709364008758746e+01 1.3909089336747893e+01 0 0 0
221 1 2.0452020515483468e+01 7.8138541223315343e+00 1.3670253521266778e+01 0 0 0
218 1 1.8683617323513879e+01 9.2249644049924040e+00 1.5204637152098917e+01 0 0 0
222 1 2.0689854282453432e+01 1.0447051430046020e+01 1.6786470802699018e+01 0 0 0
224 1 2.3607952173179321e+01 1.0787545738563438e+01 1.3607072451447843e+01 0 0 0
240 1 2.3121459058407069e+01 1.4015027717670613e+01 1.7037716096372762e+01 0 0 0
236 1 1.6968218475997141e+01 1.3632624099707662e+01 1.6921045031955419e+01 0 0 0
227 1 1.3128939503301886e+00 1.4202847922931534e+01 1.3680123990529665e+01 0 0 0
226 1 3.1767390689995798e+00 1.2662804807931515e+01 1.5181321321249653e+01 0 0 0
228 1 4.6568151933492636e+00 1.4086392052027252e+01 1.7043940130321129e+01 0 0 0
565 1 6.2982790876695658e+00 1.5389755341976654e+01 1.5696299446099344e+01 0 0 0
172 1 9.2830343251799849e+00 2.8862618722120170e+00 1.2451992275499824e+01 0 0 0
284 1 9.5729932131629099e+00 9.1255918082338550e+00 1.8355334915962281e+01 0 0 0
297 1 1.8850959116500000e+01 5.9801660370700676e+00 1.8481400153230084e+01 0 0 0
313 1 1.2409859202681265e+01 1.2560501277870745e+01 1.8345379736502895e+01 0 0 0
317 1 1.8861069080463047e+01 1.2186021728499915e+01 1.8210061011300045e+01 0 0 0
642 1 3.2349679447386026e+00 1.5352482063103915e+01 1.8359950156006967e+01 0 0 0
292 1 1.5596536476025319e+01 9.7834122767609237e+00 1.8302830351783147e+01 0 0 0
305 1 2.4508489917177357e+01 1.2582955964422867e+01 1.8393018569632769e+01 -1 0 0
289 1 1.3006002148792966e+01 6.0892963374478342e+00 1.8303309677822462e+01 0 0 0
573 1 1.8752210748961538e+01 1.5142994454372150e+01 1.5404085782215393e+01 0 0 0
281 1 5.7822390974633056e+00 6.3066849761833508e+00 1.8438350333681196e+01 0 0 0
273 1 2.4826468783056541e+01 6.3693936590167155e+00 1.8604740346233740e+01 -1 0 0
654 1 2.1715511475492150e+01 1.5388336858647470e+01 1.8546290810383820e+01 0 0 0
164 1 3.3185790284918415e+00 2.9802504295070080e+00 1.2477725764835187e+01 0 0 0
237 1 1.8866752906647626e+01 1.2391354452773697e+01 1.2434394274316002e+01 0 0 0
245 1 1.5936761759655842e+00 1.3438184896477219e+00 2.0321791795830368e+01 0 0 0
320 1 2.3560821162498208e+01 1.3839141179415192e+01 2.3462086952279176e+01 0 0 0
641 1 5.6853770289144734e-02 1.5255919198742316e+01 2.1526515004170001e+01 0 0 0
247 1 4.6346590358609863e+00 1.3078124161706830e+00 2.3406251968051464e+01 0 0 0
250 1 6.2931083328509807e+00 3.0346136870891609e+00 2.1303891880837245e+01 0 0 0
253 1 7.9951214301806779e+00 1.5130237862216847e+00 2.0208672960990729e+01 0 0 0
340 1 1.5864035381185900e+01 2.8460284729471006e+00 2.4733294111498548e+01 0 0 0
369 1 1.2682876918517890e+01 6.1714981969375824e+00 2.4300541554901226e+01 0 0 0
255 1 1.0692064591142000e+01 1.4522790552114346e+00 2.3293664465274670e+01 0 0 0
258 1 1.2585211980216041e+01 2.7726552282181065e+00 2.1762045570486425e+01 0 0 0
261 1 1.4546634967281868e+01 1.5100145256661273e+00 2.0182392820815878e+01 0 0 0
263 1 1.7223799420895638e+01 1.1466057206781481e+00 2.3130604750745427e+01 0 0 0
337 1 1.2618007099031203e+01 9.7454849734063487e-02 2.4713822602845251e+01 0 0 0
364 1 9.6078569356997932e+00 9.1316958772473722e+00 2.4810905866004298e+01 0 0 0
266 1 1.9005062923561667e+01 2.8088930024007226e+00 2.1723347811098172e+01 0 0 0
269 1 2.0888519459201049e+01 1.3471276068473130e+00 2.0111063021918820e+01 0 0 0
318 1 2.1832545148724897e+01 1.2439602433571100e+01 2.1755866799295458e+01 0 0 0
332 1 9.2633372007682961e+00 2.9543971336953376e+00 2.4801707877190427e+01 0 0 0
726 1 9.1700591671516296e+00 1.5309783208497956e+01 2.4750830904955937e+01 0 0 0
242 1 2.4741996090955286e+01 2.8003623733671881e+00 2.1781505846277980e+01 -1 0 0
271 1 2.3280355230986544e+01 1.4458770512700247e+00 2.3374353349745707e+01 0 0 0
246 1 1.2146626252874999e+00 4.6564851405250884e+00 2.2799631318409240e+01 0 0 0
275 1 2.9096758867273826e+00 6.1464598712328398e+00 2.1352374056618299e+01 0 0 0
393 1 1.2471230324509554e+01 1.2943686658441623e+01 2.4432359570446717e+01 0 0 0
248 1 4.6022801094611312e+00 4.6349003849366470e+00 2.0039592373482211e+01 0 0 0
279 1 4.6509159061298915e+00 7.2210126185138046e+00 2.3108131328060018e+01 0 0 0
653 1 1.8656753401363552e+01 1.5314440210666946e+01 2.1559715248859586e+01 0 0 0
254 1 7.9436224324084925e+00 4.4898098077590154e+00 2.3097828641625778e+01 0 0 0
283 1 9.3492721376924113e+00 6.0785295855727419e+00 2.1516054473583480e+01 0 0 0
285 1 7.5119721791190646e+00 7.7675986924554046e+00 2.0054573523589593e+01 0 0 0
256 1 1.1250351948184305e+01 4.4860507555496465e+00 1.9851858397087462e+01 0 0 0
319 1 2.0261627256641468e+01 1.3552639717782405e+01 1.9940075766209695e+01 0 0 0
316 1 1.7078241072619306e+01 1.4202829725727049e+01 2.3039646034312725e+01 0 0 0
262 1 1.4364192719157467e+01 4.3075508034083807e+00 2.3105867012159397e+01 0 0 0
264 1 1.7499233386683109e+01 4.2771744440387778e+00 2.0039966597700786e+01 0 0 0
291 1 1.5948392954453899e+01 6.0482952076421359e+00 2.1636282217574959e+01 0 0 0
270 1 2.0356011648720816e+01 4.3197989416190694e+00 2.3068528304497068e+01 0 0 0
301 1 2.0390789997304012e+01 7.5787693237900289e+00 1.9912074626826161e+01 0 0 0
314 1 1.5811396455749790e+01 1.2481694823189850e+01 2.1257636355015411e+01 0 0 0
299 1 2.1934361814395224e+01 6.0795418745760124e+00 2.1621521806952380e+01 0 0 0
272 1 2.3729561298807866e+01 4.5258538498126324e+00 1.9929584747232152e+01 0 0 0
277 1 1.0920099669747527e+00 7.8873202419111283e+00 2.0276127216167026e+01 0 0 0
278 1 1.5440388463418793e+00 1.0786929088244259e+01 2.3556127377239015e+01 0 0 0
274 1 2.4776879580299003e+01 9.3333517626912617e+00 2.1961119079767922e+01 -1 0 0
280 1 4.4502522761555037e+00 1.0843979658832994e+01 2.0409543738135582e+01 0 0 0
282 1 6.0569009071706654e+00 8.9848518898231440e+00 2.1699685807210095e+01 0 0 0
286 1 7.5818887082736657e+00 1.0516209349958434e+01 2.3329156445343298e+01 0 0 0
288 1 1.0763943933471037e+01 1.0837679068626155e+01 1.9853076106656875e+01 0 0 0
251 1 9.0823537211499108e+00 3.3792516401515371e-02 2.1866629805192403e+01 0 0 0
310 1 9.0073947586744794e+00 1.1862290898558372e+01 2.1661943919286404e+01 0 0 0
287 1 1.1190961327277989e+01 7.6170027996692680e+00 2.2675841996714578e+01 0 0 0
290 1 1.2722257041479960e+01 9.6205021143787395e+00 2.0987947198757155e+01 0 0 0
294 1 1.4148964841431777e+01 1.1240520218869831e+01 2.2980429522828949e+01 0 0 0
293 1 1.4245140671404679e+01 7.9715124992379565e+00 1.9970053143349126e+01 0 0 0
295 1 1.7368231261168411e+01 7.6843149560029307e+00 2.3084341707578957e+01 0 0 0
296 1 1.7275519183761979e+01 1.0895657977125209e+01 1.9825401198170372e+01 0 0 0
377 1 1.8788857511485915e+01 5.9329578566260448e+00 2.4870171480966363e+01 0 0 0
298 1 1.9130264038054733e+01 9.6502987084227705e+00 2.1507495042411126e+01 0 0 0
302 1 2.0545099268957948e+01 1.1031661396877162e+01 2.3498287417685837e+01 0 0 0
303 1 2.3139141628349670e+01 7.8540136744028457e+00 2.3138179847587381e+01 0 0 0
304 1 2.3163136065574761e+01 1.0998189712574586e+01 2.0244410503471808e+01 0 0 0
311 1 7.5817091779753154e+00 1.3858256942506033e+01 2.0516988945390949e+01 0 0 0
312 1 1.0633756578954848e+01 1.3924296871046476e+01 2.2668224297544636e+01 0 0 0
306 1 3.1955846160030457e+00 1.2521809668851384e+01 2.2026653111003469e+01 0 0 0
307 1 1.5626654300695531e+00 1.3788870274173004e+01 1.9733573342327407e+01 0 0 0
315 1 1.4075598799363410e+01 1.3947142826328909e+01 1.9890749249643456e+01 0 0 0
308 1 4.4961366672515730e+00 1.3951119563288236e+01 2.3692629465567183e+01 0 0 0
645 1 5.9373509441244634e+00 1.5286116874051556e+01 2.1870326143409414e+01 0 0 0
372 1 1.5643814121083228e+01 9.4822418440434575e+00 2.4628667158816214e+01 0 0 0
324 1 2.9251108593526562e+00 3.1748625831043689e+00 2.4386633402348522e+01 0 0 0
649 1 1.2560600483177492e+01 1.5454989008770374e+01 2.1316571186167380e+01 0 0 0
300 1 2.1849003774965034e+01 9.4703181014098021e+00 1.8700986897087102e+01 0 0 0
353 1 2.4704532201431864e+01 5.8476020575092420e+00 2.4615060819976925e+01 -1 0 0
309 1 5.8108648818785342e+00 1.2565266205170989e+01 1.9135193678213600e+01 0 0 0
356 1 3.2386161774951767e+00 9.1485892055724118e+00 2.4786798175091686e+01 0 0 0
361 1 6.4354402943193492e+00 5.8383674100682157e+00 2.4814989184651843e+01 0 0 0
257 1 1.2488299277049684e+01 4.2931784163116826e-01 1.8680858966643445e+01 0 0 0
260 1 1.5988354224234927e+01 2.8497993326880180e+00 1.8723565943589872e+01 0 0 0
244 1 3.1459993399357011e+00 2.8904094776347669e+00 1.8715232068372451e+01 0 0 0
646 1 9.0874978148043315e+00 1.5340882908883387e+01 1.8739878363220956e+01 0 0 0
276 1 2.5276140455685288e+00 9.9002394627628050e+00 1.8707323587097321e+01 0 0 0
325 1 1.6750809267634135e+00 1.3657245812695908e+00 2.6134921261816416e+01 0 0 0
327 1 4.8815036320750513e+00 1.3512817671645458e+00 2.9926711868253268e+01 0 0 0
330 1 5.9853378123147269e+00 3.1437175204339880e+00 2.8063875837754722e+01 0 0 0
331 1 9.3003493585348309e+00 1.4225087024674998e-01 2.7541597482630021e+01 0 0 0
333 1 7.7865875251918837e+00 1.8736598928137296e+00 2.6517517444313338e+01 0 0 0
380 1 2.2010791272676684e+01 9.3589786421839918e+00 2.4975641364423044e+01 0 0 0
339 1 1.5647672342139654e+01 -5.5885514034507366e-02 2.7879666488524176e+01 0 0 0
335 1 1.1033701351808155e+01 1.6792032358253017e+00 2.9190195576529760e+01 0 0 0
338 1 1.2718256574763776e+01 3.1121844227220645e+00 2.8015088857916581e+01 0 0 0
341 1 1.4045641054857967e+01 1.4152623879515105e+00 2.6386236611940312e+01 0 0 0
17 1 1.2250408913618804e+01 2.5964252386418951e-01 3.0962349985982261e+01 0 0 -1
343 1 1.7041793352629071e+01 1.5680177429046931e+00 2.9461911205667711e+01 0 0 0
396 1 1.6871914527261858e+01 1.4134353767816268e+01 2.9620153997497432e+01 0 0 0
346 1 1.8510179740732653e+01 3.1664632394269576e+00 2.7999455646813832e+01 0 0 0
349 1 2.0112695467035671e+01 1.2780116969375812e+00 2.6724459576495242e+01 0 0 0
322 1 8.9705919888700691e-02 2.7499628177839384e+00 2.7880752078265573e+01 0 0 0
351 1 2.3525520405706160e+01 1.3993591727648942e+00 2.9716565433559250e+01 0 0 0
323 1 3.1320160715899870e+00 -3.5684254094171308e-02 2.7983929236155895e+01 0 0 0
326 1 1.2908718435920321e+00 4.6076437971194935e+00 2.9618994671475118e+01 0 0 0
355 1 3.1727969838474399e+00 6.1459601684832039e+00 2.8024696839857960e+01 0 0 0
357 1 1.2025562388157367e+00 7.3958270791113501e+00 2.6430252141309388e+01 0 0 0
394 1 1.5263863762683762e+01 1.2704212956612890e+01 2.8194799537843025e+01 0 0 0
328 1 4.5916597974829214e+00 4.4523485699490557e+00 2.6434204932934044e+01 0 0 0
359 1 5.1559357453440260e+00 7.9090579144161541e+00 2.9823909169640245e+01 0 0 0
334 1 7.7701188299829758e+00 4.5875312442678036e+00 2.9167405678369402e+01 0 0 0
363 1 9.6111477289489073e+00 6.1293759758612829e+00 2.7547328828049537e+01 0 0 0
336 1 1.1177304692882032e+01 4.4854401218457305e+00 2.6061662738303056e+01 0 0 0
342 1 1.3893937302705888e+01 4.7214515410974656e+00 2.9895999346881162e+01 0 0 0
344 1 1.7237550994073722e+01 4.6374389090260824e+00 2.6536792171745560e+01 0 0 0
371 1 1.5826898999229446e+01 6.1252825837129850e+00 2.8027791663473288e+01 0 0 0
350 1 2.0194009698482319e+01 4.7607040442701978e+00 2.9424290868731049e+01 0 0 0
69 1 6.2834724235050814e+00 1.1988453541864008e+01 3.1082788731023143e+01 0 0 -1
379 1 2.1785431578065392e+01 6.0637174705350407e+00 2.7669261624839095e+01 0 0 0
352 1 2.3403394560155377e+01 4.2320457680473105e+00 2.6337285689712104e+01 0 0 0
400 1 2.3245272989666624e+01 1.3734182597183693e+01 2.9802123874544886e+01 0 0 0
358 1 1.6350642630397663e+00 1.0494883540051411e+01 2.9672483817548514e+01 0 0 0
354 1 2.4494632294543756e+01 9.2183511108266369e+00 2.8000623972486199e+01 -1 0 0
360 1 4.8686649506398894e+00 1.0364100592676914e+01 2.6380158262515220e+01 0 0 0
362 1 6.4757861399173580e+00 8.9088637417227119e+00 2.7959798587893122e+01 0 0 0
365 1 7.9577579179749911e+00 7.4037094941952635e+00 2.6233914502715773e+01 0 0 0
366 1 8.1751467962533653e+00 1.0750645725723709e+01 2.9487342849237230e+01 0 0 0
368 1 1.1140651852857134e+01 1.0871316600876161e+01 2.6115679521091423e+01 0 0 0
367 1 1.1029839501375887e+01 7.3817408611551301e+00 2.9468996407848500e+01 0 0 0
370 1 1.2558132440355269e+01 8.9350563517885213e+00 2.7966104655355743e+01 0 0 0
374 1 1.3895662337564417e+01 1.0722622687432860e+01 2.9355802199218274e+01 0 0 0
373 1 1.4257175415717160e+01 7.7523268099163731e+00 2.6071612309958297e+01 0 0 0
375 1 1.6829493335081416e+01 7.8997439239264686e+00 2.9661701625117200e+01 0 0 0
376 1 1.7116305753741045e+01 1.1090103716865714e+01 2.6588682055010253e+01 0 0 0