
# Define the lattice
variable	lattice_constant equal 3.90859
lattice		bcc ${lattice_constant}
lattice		bcc 3.90859
Lattice spacing in x,y,z = 3.90859 3.90859 3.90859

# Define region
# multiples of lattice spacing
region 		simbox block 0 5 0 5 0 5

# Create Atoms
create_box 	1 simbox
Created orthogonal box = (0 0 0) to (19.5429 19.5429 19.5429)
  1 by 2 by 5 MPI processor grid
create_atoms 	1 box
Created 250 atoms
  Time spent = 0.000395775 secs
mass		1 18.015

# Define Interatomic Potential
pair_style	sw
pair_coeff	* * mW_metal.sw mW
Reading potential file mW_metal.sw with DATE: 2019-02-27

neighbor 	2.0 bin
neigh_modify	delay 10 check no

# Initialize atom velocities
# velocity	all create ${temperature} 97287

# Pressure computations
compute		total_press all pressure thermo_temp
compute		peratom all stress/atom NULL
compute		p all reduce sum c_peratom[1] c_peratom[2] c_peratom[3]
variable	press equal -(c_p[1]+c_p[2]+c_p[3])/(3*vol)

# Density computations
variable	total_mass equal mass(all)
variable	v equal vol
print 		${total_mass}
print 		4503.75
4503.75
print		$v
print		7463.97820682622
7463.97820682622

variable 	density equal v_total_mass/(v_v*18.015)
print 		${density}
print 		0.0334942028329291
0.0334942028329291

# Displacement computations
compute		disp all msd

# Run equilibration
thermo_style	custom step temp ke pe c_total_press c_disp[4]
thermo		10
dump		1 all atom 10 ${simname}.dump
dump		1 all atom 10 mW_bcc_test00_eq.dump


fix 		4 all nvt temp 300.0 300.0 $(100.0*dt)
fix 		4 all nvt temp 300.0 300.0 0.10000000000000000555
timestep	0.0005
run		200000
Neighbor list info ...
  update every 1 steps, delay 10 steps, check no
  max neighbors/atom: 2000, page size: 100000
  master list distance cutoff = 6.3065
  ghost atom cutoff = 6.3065
  binsize = 3.15325, bins = 7 7 7
  1 neighbor lists, perpetual/occasional/extra = 1 0 0
  (1) pair sw, perpetual
      attributes: full, newton on
      pair build: full/bin/atomonly
      stencil: full/bin/3d
      bin: standard
Per MPI rank memory allocation (min/avg/max) = 4.696 | 4.696 | 4.696 Mbytes
Step Temp KinEng PotEng c_total_press c_disp[4] 
       0            0            0   -100.22289   -47081.802            0 
      10 1.0374896e-29 3.3392407e-31   -100.22289   -47081.802 2.8345633e-37 
      20 4.1706909e-29 1.3423692e-30   -100.22289   -47081.802 4.5421473e-36 
      30 9.4617182e-29 3.0453274e-30   -100.22289   -47081.802 2.3082652e-35 
      40 1.7008707e-28 5.4743845e-30   -100.22289   -47081.802 7.3358206e-35 
      50 2.692505e-28 8.6660364e-30   -100.22289   -47081.802 1.8034253e-34 
      60 3.9300804e-28 1.2649269e-29   -100.22289   -47081.802 3.7690717e-34 
      70 5.420391e-28 1.7445949e-29   -100.22289   -47081.802 7.0353123e-34 
      80 7.1493272e-28 2.3010664e-29   -100.22289   -47081.802 1.2028483e-33 
      90 9.1250868e-28  2.93698e-29   -100.22289   -47081.802 1.9217341e-33 
     100 1.1357641e-27 3.6555449e-29   -100.22289   -47081.802 2.9141521e-33 
     110 1.3877489e-27 4.4665777e-29   -100.22289   -47081.802 4.2612703e-33 
     120 1.6709998e-27 5.3782427e-29   -100.22289   -47081.802 6.0728501e-33 
     130 1.9914942e-27 6.4097787e-29   -100.22289   -47081.802 8.4709521e-33 
     140 2.3469257e-27 7.5537625e-29   -100.22289   -47081.802 1.1597017e-32 
     150 2.7386446e-27 8.8145403e-29   -100.22289   -47081.802 1.5633341e-32 
     160 3.1697228e-27 1.0201999e-28   -100.22289   -47081.802 2.0798427e-32 
     170 3.6396795e-27 1.1714591e-28   -100.22289   -47081.802 2.733554e-32 
     180 4.1512889e-27 1.3361245e-28   -100.22289   -47081.802 3.5546405e-32 
     190 4.7056911e-27 1.5145632e-28   -100.22289   -47081.802 4.576453e-32 
     200 5.3091482e-27 1.7087905e-28   -100.22289   -47081.802 5.8353007e-32 
     210 5.9567567e-27 1.9172284e-28   -100.22289   -47081.802 7.3714867e-32 
     220 6.6576707e-27 2.142823e-28   -100.22289   -47081.802 9.2336401e-32 
     230 7.4212983e-27 2.3886024e-28   -100.22289   -47081.802 1.1497291e-31 
     240 8.2191508e-27 2.6453975e-28   -100.22289   -47081.802 1.4223022e-31 
     250 9.058199e-27 2.9154516e-28   -100.22289   -47081.802 1.7424829e-31 
     260 9.9359257e-27 3.1979548e-28   -100.22289   -47081.802 2.1123435e-31 
     270 1.0864976e-26 3.496977e-28   -100.22289   -47081.802 2.5311016e-31 
     280 1.1844395e-26 3.8122105e-28   -100.22289   -47081.802 3.0013223e-31 
     290 1.2883907e-26 4.1467854e-28   -100.22289   -47081.802 3.5228305e-31 
     300 1.3981328e-26 4.4999989e-28   -100.22289   -47081.802 4.0964125e-31 
     310 1.5166726e-26 4.8815284e-28   -100.22289   -47081.802 4.7319034e-31 
     320 1.6401756e-26 5.2790326e-28   -100.22289   -47081.802 5.4348641e-31 
     330 1.7688132e-26 5.6930627e-28   -100.22289   -47081.802 6.2015913e-31 
     340 1.9020237e-26 6.1218109e-28   -100.22289   -47081.802 7.0245982e-31 
     350 2.0422183e-26 6.573038e-28   -100.22289   -47081.802 7.8971877e-31 
     360 2.1914522e-26 7.0533591e-28   -100.22289   -47081.802 8.8215225e-31 
     370 2.3510781e-26 7.5671272e-28   -100.22289   -47081.802 9.8018999e-31 
     380 2.5209842e-26 8.1139833e-28   -100.22289   -47081.802 1.0842338e-30 
     390 2.7019619e-26 8.696474e-28   -100.22289   -47081.802 1.194342e-30 
     400 2.8949754e-26 9.317703e-28   -100.22289   -47081.802 1.3118037e-30 
     410 3.0980758e-26 9.9713973e-28   -100.22289   -47081.802 1.4369087e-30 
     420 3.3111535e-26 1.0657205e-27   -100.22289   -47081.802 1.5695386e-30 
     430 3.5339001e-26 1.1374132e-27   -100.22289   -47081.802 1.7088954e-30 
     440 3.7676739e-26 1.2126551e-27   -100.22289   -47081.802 1.854226e-30 
     450 4.0146646e-26 1.292151e-27   -100.22289   -47081.802 2.0048582e-30 
     460 4.2721761e-26 1.375033e-27   -100.22289   -47081.802 2.1614078e-30 
     470 4.5410237e-26 1.4615637e-27   -100.22289   -47081.802 2.323551e-30 
     480 4.8264781e-26 1.5534394e-27   -100.22289   -47081.802 2.4910347e-30 
     490 5.1286595e-26 1.6506989e-27   -100.22289   -47081.802 2.6629338e-30 
     500 5.4508174e-26 1.7543879e-27   -100.22289   -47081.802 2.8392977e-30 
     510 5.7905542e-26 1.8637348e-27   -100.22289   -47081.802 3.0211525e-30 
     520 6.1478736e-26 1.9787408e-27   -100.22289   -47081.802  3.20808e-30 
     530 6.5260801e-26 2.1004695e-27   -100.22289   -47081.802 3.3995254e-30 
     540 6.9255036e-26 2.2290271e-27   -100.22289   -47081.802 3.5953237e-30 
     550 7.3499005e-26 2.3656225e-27   -100.22289   -47081.802 3.795996e-30 
     560 7.7977561e-26 2.5097683e-27   -100.22289   -47081.802 4.0028674e-30 
     570 8.2751988e-26 2.663437e-27   -100.22289   -47081.802 4.2166384e-30 
     580 8.7842266e-26 2.8272715e-27   -100.22289   -47081.802 4.4387601e-30 
     590 9.3184545e-26 2.9992169e-27   -100.22289   -47081.802 4.6716096e-30 
     600 9.8835385e-26 3.1810936e-27   -100.22289   -47081.802 4.9157587e-30 
     610 1.0479382e-25 3.3728703e-27   -100.22289   -47081.802 5.1690983e-30 
     620 1.1104115e-25 3.5739456e-27   -100.22289   -47081.802 5.4318963e-30 
     630 1.1760371e-25 3.7851668e-27   -100.22289   -47081.802 5.7196297e-30 
     640 1.2456146e-25 4.0091072e-27   -100.22289   -47081.802 6.0559391e-30 
     650 1.3192211e-25 4.2460154e-27   -100.22289   -47081.802 6.4448614e-30 
     660 1.397656e-25 4.4984643e-27   -100.22289   -47081.802 6.8907747e-30 
     670 1.4799695e-25 4.7633966e-27   -100.22289   -47081.802 7.4070739e-30 
     680 1.5677625e-25 5.0459654e-27   -100.22289   -47081.802 8.0203917e-30 
     690 1.6607376e-25 5.345213e-27   -100.22289   -47081.802 8.733765e-30 
     700 1.7580498e-25 5.6584199e-27   -100.22289   -47081.802 9.5501579e-30 
     710 1.860695e-25 5.9887913e-27   -100.22289   -47081.802 1.0525398e-29 
     720 1.9690776e-25 6.3376291e-27   -100.22289   -47081.802 1.1750947e-29 
     730 2.0825937e-25 6.7029895e-27   -100.22289   -47081.802 1.3270292e-29 
     740 2.2027342e-25 7.089671e-27   -100.22289   -47081.802 1.5101168e-29 
     750 2.3297229e-25 7.4983941e-27   -100.22289   -47081.802 1.7291052e-29 
     760 2.4615355e-25 7.9226432e-27   -100.22289   -47081.802 2.0030592e-29 
     770 2.6007544e-25 8.3707299e-27   -100.22289   -47081.802 2.3448144e-29 
     780 2.7473954e-25 8.8427054e-27   -100.22289   -47081.802 2.7581201e-29 
     790 2.9020573e-25 9.3404967e-27   -100.22289   -47081.802 3.2477261e-29 
     800 3.066846e-25 9.870882e-27   -100.22289   -47081.802 3.8165474e-29 
     810 3.2408664e-25 1.043098e-26   -100.22289   -47081.802 4.4694572e-29 
     820 3.4264823e-25 1.1028399e-26   -100.22289   -47081.802 5.2139508e-29 
     830 3.6261707e-25 1.1671112e-26   -100.22289   -47081.802 6.0579693e-29 
     840 3.8398678e-25 1.2358913e-26   -100.22289   -47081.802 6.9831563e-29 
     850 4.070534e-25 1.310133e-26   -100.22289   -47081.802 8.0112332e-29 
     860 4.3202692e-25 1.3905122e-26   -100.22289   -47081.802 9.1644568e-29 
     870 4.591772e-25 1.4778974e-26   -100.22289   -47081.802 1.0465627e-28 
     880 4.887193e-25 1.572981e-26   -100.22289   -47081.802 1.1898468e-28 
     890 5.2100596e-25 1.6768981e-26   -100.22289   -47081.802 1.3476522e-28 
     900 5.5654333e-25 1.7912779e-26   -100.22289   -47081.802 1.5205226e-28 
     910 5.9563958e-25 1.9171122e-26   -100.22289   -47081.802 1.7091355e-28 
     920 6.3873884e-25 2.0558305e-26   -100.22289   -47081.802 1.9145303e-28 
     930 6.8639187e-25 2.2092055e-26   -100.22289   -47081.802 2.1412438e-28 
     940 7.3930961e-25 2.3795253e-26   -100.22289   -47081.802 2.396369e-28 
     950 7.9838179e-25 2.5696537e-26   -100.22289   -47081.802 2.6674305e-28 
     960 8.6436776e-25 2.7820347e-26   -100.22289   -47081.802 2.957273e-28 
     970  9.38316e-25 3.0200429e-26   -100.22289   -47081.802 3.270482e-28 
     980 1.0212327e-24 3.2869166e-26   -100.22289   -47081.802 3.6082538e-28 
     990 1.1142547e-24 3.5863151e-26   -100.22289   -47081.802 3.9719292e-28 
    1000 1.2183473e-24 3.9213453e-26   -100.22289   -47081.802 4.363852e-28 
    1010 1.3354602e-24 4.2982822e-26   -100.22289   -47081.802 4.7875966e-28 
    1020 1.4677282e-24 4.7239971e-26   -100.22289   -47081.802 5.2530537e-28 
    1030 1.6175423e-24 5.2061853e-26   -100.22289   -47081.802 5.7771357e-28 
    1040 1.7873485e-24 5.7527199e-26   -100.22289   -47081.802 6.3934675e-28 
    1050 1.980904e-24 6.3756933e-26   -100.22289   -47081.802 7.0855661e-28 
    1060 2.2013492e-24 7.0852132e-26   -100.22289   -47081.802 7.8503198e-28 
    1070 2.4529988e-24 7.895167e-26   -100.22289   -47081.802 8.696732e-28 
    1080 2.7398979e-24 8.818574e-26   -100.22289   -47081.802 9.6348365e-28 
    1090 3.0670656e-24 9.8715887e-26   -100.22289   -47081.802 1.0697264e-27 
    1100 3.4405416e-24 1.107365e-25   -100.22289   -47081.802 1.1912849e-27 
    1110 3.8682321e-24 1.2450205e-25   -100.22289   -47081.802 1.3362788e-27 
    1120 4.3598898e-24 1.4032644e-25   -100.22289   -47081.802 1.5058861e-27 
    1130 4.9258955e-24 1.5854377e-25   -100.22289   -47081.802 1.7000388e-27 
    1140 5.5809577e-24 1.7962746e-25   -100.22289   -47081.802 1.9264215e-27 
    1150 6.3434242e-24 2.0416803e-25   -100.22289   -47081.802 2.1926548e-27 
    1160 7.2324156e-24 2.3278091e-25   -100.22289   -47081.802 2.5054658e-27 
    1170 8.2709435e-24 2.6620674e-25   -100.22289   -47081.802 2.8717146e-27 
    1180 9.4845085e-24 3.0526627e-25   -100.22289   -47081.802 3.3092774e-27 
    1190 1.0906659e-23 3.5103929e-25   -100.22289   -47081.802 3.8354061e-27 
    1200 1.2575345e-23 4.0474723e-25   -100.22289   -47081.802 4.4488136e-27 
    1210 1.4540947e-23 4.6801166e-25   -100.22289   -47081.802 5.1780902e-27 
    1220 1.6861077e-23 5.4268685e-25   -100.22289   -47081.802 6.034536e-27 
    1230 1.9607413e-23 6.3107979e-25   -100.22289   -47081.802 7.053832e-27 
    1240 2.2866165e-23 7.3596527e-25   -100.22289   -47081.802 8.2776244e-27 
    1250 2.6737292e-23 8.605605e-25   -100.22289   -47081.802 9.7575194e-27 
    1260 3.1340451e-23 1.0087167e-24   -100.22289   -47081.802 1.1500558e-26 
    1270 3.6821031e-23 1.1851135e-24   -100.22289   -47081.802 1.3572317e-26 
    1280 4.336062e-23 1.3955952e-24   -100.22289   -47081.802 1.6066431e-26 
    1290 5.1187557e-23 1.6475112e-24   -100.22289   -47081.802 1.9074904e-26 
    1300 6.0566044e-23 1.9493651e-24   -100.22289   -47081.802 2.2652991e-26 
    1310 7.1816039e-23 2.3114549e-24   -100.22289   -47081.802 2.6932288e-26 
    1320 8.5353883e-23 2.747181e-24   -100.22289   -47081.802 3.2102733e-26 
    1330 1.0168469e-22 3.2728007e-24   -100.22289   -47081.802 3.8303866e-26 
    1340 1.2139426e-22 3.9071685e-24   -100.22289   -47081.802 4.5724881e-26 
    1350 1.4518874e-22 4.6730121e-24   -100.22289   -47081.802 5.4709874e-26 
    1360 1.7395313e-22 5.5988164e-24   -100.22289   -47081.802 6.5733248e-26 
    1370 2.0878416e-22 6.7198801e-24   -100.22289   -47081.802 7.9028717e-26 
    1380  2.50968e-22 8.0775998e-24   -100.22289   -47081.802 9.4917419e-26 
    1390 3.0206501e-22 9.7221968e-24   -100.22289   -47081.802 1.1416889e-25 
    1400 3.6399786e-22 1.1715554e-23   -100.22289   -47081.802 1.3726616e-25 
    1410 4.3904839e-22 1.4131113e-23   -100.22289   -47081.802 1.6486735e-25 
    1420 5.3007764e-22 1.706096e-23   -100.22289   -47081.802 1.9881775e-25 
    1430 6.4061634e-22 2.0618734e-23   -100.22289   -47081.802 2.3981923e-25 
    1440 7.7490242e-22 2.4940836e-23   -100.22289   -47081.802 2.8937817e-25 
    1450 9.3813235e-22 3.0194518e-23   -100.22289   -47081.802 3.4981208e-25 
    1460 1.1366728e-21 3.6584697e-23   -100.22289   -47081.802 4.2331647e-25 
    1470 1.3781892e-21 4.4358089e-23   -100.22289   -47081.802 5.1178295e-25 
    1480 1.6719491e-21 5.381298e-23   -100.22289   -47081.802 6.1863361e-25 
    1490  2.02942e-21 6.5318459e-23   -100.22289   -47081.802 7.4898402e-25 
    1500 2.4645144e-21 7.9322307e-23   -100.22289   -47081.802 9.063138e-25 
    1510 2.9942439e-21 9.6372064e-23   -100.22289   -47081.802 1.0987265e-24 
    1520 3.6395265e-21 1.1714099e-22   -100.22289   -47081.802 1.3319231e-24 
    1530 4.4256513e-21 1.4244302e-22   -100.22289   -47081.802 1.6150776e-24 
    1540 5.3835591e-21 1.7327403e-22   -100.22289   -47081.802 1.9592768e-24 
    1550 6.5510913e-21 2.1085196e-22   -100.22289   -47081.802 2.3787437e-24 
    1560 7.9743428e-21 2.5666041e-22   -100.22289   -47081.802 2.8872032e-24 
    1570 9.7095481e-21 3.1250934e-22   -100.22289   -47081.802 3.5065242e-24 
    1580 1.1825569e-20 3.8061512e-22   -100.22289   -47081.802 4.2598569e-24 
    1590 1.4406289e-20 4.636776e-22   -100.22289   -47081.802 5.1753594e-24 
    1600 1.7554607e-20 5.6500865e-22   -100.22289   -47081.802 6.2922524e-24 
    1610 2.1396277e-20 6.8865577e-22   -100.22289   -47081.802 7.6512951e-24 
    1620 2.6084557e-20 8.3955171e-22   -100.22289   -47081.802 9.3050237e-24 
    1630 3.1807119e-20 1.0237368e-21   -100.22289   -47081.802 1.1320686e-23 
    1640 3.8793464e-20 1.2485978e-21   -100.22289   -47081.802 1.377644e-23 
    1650 4.7324154e-20 1.5231646e-21   -100.22289   -47081.802 1.6769624e-23 
    1660 5.7742226e-20 1.8584784e-21   -100.22289   -47081.802 2.0416941e-23 
    1670 7.0466992e-20 2.2680348e-21   -100.22289   -47081.802 2.4861722e-23 
    1680 8.6011836e-20 2.7683577e-21   -100.22289   -47081.802 3.0283744e-23 
    1690 1.0500506e-19 3.3796694e-21   -100.22289   -47081.802 3.6896141e-23 
    1700 1.2821527e-19 4.1267081e-21   -100.22289   -47081.802 4.496206e-23 
    1710 1.5658299e-19 5.0397452e-21   -100.22289   -47081.802 5.4802796e-23 
    1720 1.912596e-19 6.1558386e-21   -100.22289   -47081.802 6.6811167e-23 
    1730 2.3365443e-19 7.5203491e-21   -100.22289   -47081.802 8.1467207e-23 
    1740 2.854932e-19 9.1888203e-21   -100.22289   -47081.802 9.9360343e-23 
    1750 3.4888902e-19 1.1229264e-20   -100.22289   -47081.802 1.2120713e-22 
    1760 4.2642959e-19 1.3724967e-20   -100.22289   -47081.802 1.4788277e-22 
    1770 5.2128381e-19 1.6777924e-20   -100.22289   -47081.802 1.8046275e-22 
    1780 6.3733374e-19 2.0513081e-20   -100.22289   -47081.802 2.2026037e-22 
    1790 7.7933471e-19 2.5083493e-20   -100.22289   -47081.802 2.6887884e-22 
    1800 9.5311476e-19 3.0676738e-20   -100.22289   -47081.802 3.2829616e-22 
    1810 1.1658142e-18 3.7522633e-20   -100.22289   -47081.802 4.0090627e-22 
    1820 1.4261836e-18 4.5902826e-20   -100.22289   -47081.802 4.8965745e-22 
    1830 1.7449507e-18 5.6162592e-20   -100.22289   -47081.802 5.9816074e-22 
    1840 2.1352642e-18 6.8725134e-20   -100.22289   -47081.802 7.3082518e-22 
    1850 2.6132432e-18 8.410926e-20   -100.22289   -47081.802 8.9305147e-22 
    1860 3.1986532e-18 1.0295114e-19   -100.22289   -47081.802 1.0914582e-21 
    1870 3.9157324e-18 1.2603089e-19   -100.22289   -47081.802 1.3341809e-21 
    1880 4.794208e-18 1.5430531e-19   -100.22289   -47081.802 1.6311016e-21 
    1890 5.8705378e-18 1.8894782e-19   -100.22289   -47081.802 1.9944122e-21 
    1900 7.1894495e-18 2.3139801e-19   -100.22289   -47081.802 2.439015e-21 
    1910 8.8058132e-18 2.8342193e-19   -100.22289   -47081.802 2.9831534e-21 
    1920 1.0786952e-17 3.4718642e-19   -100.22289   -47081.802 3.6492261e-21 
    1930 1.3215478e-17 4.2535041e-19   -100.22289   -47081.802 4.4646483e-21 
    1940 1.619278e-17 5.2117718e-19   -100.22289   -47081.802 5.4630842e-21 
    1950 1.9843303e-17 6.3867212e-19   -100.22289   -47081.802 6.6857111e-21 
    1960 2.4319797e-17 7.8275155e-19   -100.22289   -47081.802 8.1831094e-21 
    1970 2.9809796e-17 9.5945143e-19   -100.22289   -47081.802 1.0017277e-20 
    1980 3.6543547e-17 1.1761824e-18   -100.22289   -47081.802 1.2264188e-20 
    1990 4.4803771e-17 1.4420442e-18   -100.22289   -47081.802 1.5017109e-20 
    2000 5.4937658e-17 1.7682112e-18   -100.22289   -47081.802 1.8390407e-20 
    2010 6.7371626e-17 2.1684081e-18   -100.22289   -47081.802 2.2524409e-20 
    2020 8.2629439e-17 2.6594926e-18   -100.22289   -47081.802 2.7591275e-20 
    2030 1.013545e-16 3.2621734e-18   -100.22289   -47081.802 3.3802269e-20 
    2040 1.2433729e-16 4.0018921e-18   -100.22289   -47081.802 4.1416648e-20 
    2050 1.5254903e-16 4.9099091e-18   -100.22289   -47081.802 5.0752726e-20 
    2060 1.8718322e-16 6.0246371e-18   -100.22289   -47081.802 6.2201093e-20 
    2070 2.2970654e-16 7.3932832e-18   -100.22289   -47081.802 7.6241402e-20 
    2080 2.8192169e-16 9.0738685e-18   -100.22289   -47081.802 9.3462375e-20 
    2090 3.4604448e-16 1.113771e-17   -100.22289   -47081.802 1.1458699e-19 
    2100 4.2479881e-16 1.3672479e-17   -100.22289   -47081.802 1.4050314e-19 
    2110 5.2153356e-16 1.6785962e-17   -100.22289   -47081.802 1.7230148e-19 
    2120 6.4036635e-16 2.0610688e-17   -100.22289   -47081.802 2.1132139e-19 
    2130 7.8636049e-16 2.5309623e-17   -100.22289   -47081.802 2.5920823e-19 
    2140 9.657428e-16 3.1083182e-17   -100.22289   -47081.802 3.1798349e-19 
    2150 1.1861717e-15 3.8177857e-17   -100.22289   -47081.802 3.9013114e-19 
    2160 1.4570672e-15 4.689684e-17   -100.22289   -47081.802 4.787036e-19 
    2170 1.7900176e-15 5.7613105e-17   -100.22289   -47081.802 5.8745164e-19 
    2180 2.199279e-15 7.0785502e-17   -100.22289   -47081.802 7.2098517e-19 
    2190 2.7023923e-15 8.6978594e-17   -100.22289   -47081.802 8.849722e-19 
    2200 3.3209413e-15 1.0688707e-16   -100.22289   -47081.802 1.0863785e-18 
    2210 4.0814871e-15 1.3136583e-16   -100.22289   -47081.802 1.3337692e-18 
    2220 5.0167194e-15 1.6146701e-16   -100.22289   -47081.802 1.6376756e-18 
    2230 6.1668733e-15 1.984856e-16   -100.22289   -47081.802 2.0110475e-18 
    2240 7.5814763e-15 2.440157e-16   -100.22289   -47081.802 2.4698111e-18 
    2250   9.3215e-15 3.0001971e-16   -100.22289   -47081.802 3.0335544e-18 
    2260 1.146201e-14 3.6891369e-16   -100.22289   -47081.802 3.7263703e-18 
    2270 1.4095434e-14 4.5367248e-16   -100.22289   -47081.802 4.5779001e-18 
    2280 1.7335585e-14 5.5795927e-16   -100.22289   -47081.802 5.6246056e-18 
    2290 2.1322625e-14 6.8628524e-16   -100.22289   -47081.802 6.9113552e-18 
    2300 2.6229177e-14 8.442064e-16   -100.22289   -47081.802 8.4933566e-18 
    2310 3.2267862e-14 1.0385662e-15   -100.22289   -47081.802 1.043855e-17 
    2320 3.9700592e-14 1.2777944e-15   -100.22289   -47081.802 1.2830553e-17 
    2330 4.8850021e-14 1.5722758e-15   -100.22289   -47081.802 1.5772287e-17 
    2340 6.0113669e-14 1.9348051e-15   -100.22289   -47081.802 1.9390441e-17 
    2350 7.3981333e-14 2.3811466e-15   -100.22289   -47081.802 2.3840984e-17 
    2360 9.1056555e-14 2.9307259e-15   -100.22289   -47081.802 2.9315941e-17 
    2370 1.1208311e-13 3.6074818e-15   -100.22289   -47081.802 3.6051753e-17 
    2380 1.3797764e-13 4.4409174e-15   -100.22289   -47081.802 4.4339573e-17 
    2390 1.6986996e-13 5.4673965e-15   -100.22289   -47081.802 5.4537961e-17 
    2400 2.0915272e-13 6.7317427e-15   -100.22289   -47081.802 6.7088533e-17 
    2410 2.575427e-13 8.2892117e-15   -100.22289   -47081.802 8.2535238e-17 
    2420 3.171564e-13 1.0207925e-14   -100.22289   -47081.802 1.0154813e-16 
    2430 3.9060335e-13 1.2571872e-14   -100.22289   -47081.802 1.2495269e-16 
    2440 4.8110118e-13 1.5484615e-14   -100.22289   -47081.802 1.5376592e-16 
    2450 5.9261765e-13 1.9073859e-14   -100.22289   -47081.802 1.8924097e-16 
    2460 7.3004591e-13 2.3497094e-14   -100.22289   -47081.802 2.3292201e-16 
    2470 8.994208e-13 2.8948556e-14   -100.22289   -47081.802 2.8671201e-16 
    2480 1.1081858e-12 3.566782e-14   -100.22289   -47081.802 3.5295632e-16 
    2490 1.3655225e-12 4.3950402e-14   -100.22289   -47081.802 4.3454573e-16 
    2500 1.6827574e-12 5.4160853e-14   -100.22289   -47081.802 5.3504361e-16 
    2510 2.0738639e-12 6.6748918e-14   -100.22289   -47081.802 6.5884273e-16 
    2520 2.5560822e-12 8.2269489e-14   -100.22289   -47081.802 8.113588e-16 
    2530 3.1506847e-12 1.0140723e-13   -100.22289   -47081.802 9.9926915e-16 
    2540 3.8839209e-12 1.2500701e-13   -100.22289   -47081.802 1.2308073e-15 
    2550 4.7881841e-12 1.5411142e-13   -100.22289   -47081.802 1.5161266e-15 
    2560 5.9034524e-12 1.900072e-13   -100.22289   -47081.802 1.8677483e-15 
    2570 7.2790685e-12 2.3428247e-13   -100.22289   -47081.802 2.3011159e-15 
    2580 8.9759368e-12 2.8889749e-13   -100.22289   -47081.802 2.8352777e-15 
    2590 1.1069238e-11 3.5627203e-13   -100.22289   -47081.802 3.4937306e-15 
    2600 1.3651784e-11 4.3939327e-13   -100.22289   -47081.802 4.3054609e-15 
    2610 1.6838157e-11 5.4194915e-13   -100.22289   -47081.802 5.3062296e-15 
    2620 2.0769827e-11  6.68493e-13   -100.22289   -47081.802 6.5401591e-15 
    2630 2.5621476e-11 8.2464708e-13   -100.22289   -47081.802 8.0616922e-15 
    2640 3.1608805e-11 1.0173539e-12   -100.22289   -47081.802 9.9380106e-15 
    2650 3.8998189e-11 1.255187e-12   -100.22289   -47081.802 1.2252022e-14 
    2660 4.8118596e-11 1.5487344e-12   -100.22289   -47081.802 1.510605e-14 
    2670 5.9376332e-11 1.9110733e-12   -100.22289   -47081.802 1.8626386e-14 
    2680 7.3273245e-11 2.3583563e-12   -100.22289   -47081.802 2.296892e-14 
    2690 9.0429238e-11 2.9105352e-12   -100.22289   -47081.802 2.8326085e-14 
    2700 1.1161009e-10 3.5922573e-12   -100.22289   -47081.802 3.4935446e-14 
    2710 1.3776183e-10 4.4339716e-12   -100.22289   -47081.802 4.3090301e-14 
    2720 1.7005328e-10 5.4732967e-12   -100.22289   -47081.802 5.3152779e-14 
    2730 2.0992853e-10 6.7567127e-12   -100.22289   -47081.802 6.557003e-14 
    2740 2.5917198e-10 8.3416514e-12   -100.22289   -47081.802 8.089422e-14 
    2750 3.199886e-10 1.0299081e-11   -100.22289   -47081.802 9.980724e-14 
    2760 3.9510323e-10 1.2716704e-11   -100.22289   -47081.802 1.2315124e-13 
    2770 4.8788339e-10 1.5702906e-11   -100.22289   -47081.802 1.5196635e-13 
    2780 6.0249106e-10 1.9391642e-11   -100.22289   -47081.802 1.8753733e-13 
    2790 7.4407046e-10 2.3948485e-11   -100.22289   -47081.802 2.314512e-13 
    2800 9.189802e-10 2.9578091e-11   -100.22289   -47081.802 2.8566846e-13 
    2810 1.1350804e-09 3.6533444e-11   -100.22289   -47081.802 3.5261115e-13 
    2820 1.4020879e-09 4.5127288e-11   -100.22289   -47081.802 4.3527169e-13 
    2830 1.7320155e-09 5.5746264e-11   -100.22289   -47081.802 5.3734744e-13 
    2840 2.1397152e-09 6.8868394e-11   -100.22289   -47081.802 6.6340704e-13 
    2850 2.6435503e-09 8.5084719e-11   -100.22289   -47081.802 8.1909606e-13 
    2860 3.2662271e-09 1.0512605e-10   -100.22289   -47081.802 1.0113913e-12 
    2870 4.0358231e-09 1.298961e-10   -100.22289   -47081.802 1.2489153e-12 
    2880 4.9870598e-09 1.6051239e-10   -100.22289   -47081.802 1.5423249e-12 
    2890 6.1628771e-09 1.9835698e-10   -100.22289   -47081.802 1.9047924e-12 
    2900 7.6163813e-09 2.4513914e-10   -100.22289   -47081.802 2.3525997e-12 
    2910 9.4132558e-09 3.0297295e-10   -100.22289   -47081.802 2.9058742e-12 
    2920 1.1634744e-08 3.7447326e-10   -100.22289   -47081.802 3.5894981e-12 
    2930 1.438134e-08 4.6287458e-10   -100.22289   -47081.802 4.4342333e-12 
    2940 1.7777356e-08 5.7217801e-10   -100.22289   -47081.802 5.4781133e-12 
    2950 2.197658e-08 7.0733329e-10   -100.22289   -47081.802 6.7681642e-12 
    2960 2.7169267e-08 8.7446393e-10   -100.22289   -47081.802 8.3625349e-12 
    2970 3.3590802e-08 1.081146e-09   -100.22289   -47081.802 1.0333131e-11 
    2980 4.1532421e-08 1.3367532e-09   -100.22289   -47081.802 1.2768874e-11 
    2990 5.1354479e-08 1.6528838e-09   -100.22289   -47081.802 1.5779737e-11 
    3000 6.3502876e-08 2.0438893e-09   -100.22289   -47081.802 1.950173e-11 
    3010 7.8529391e-08 2.5275294e-09   -100.22289   -47081.802 2.4103079e-11 
    3020 9.7116856e-08 3.1257814e-09   -100.22289   -47081.802 2.9791863e-11 
    3030 1.2011032e-07 3.865844e-09   -100.22289   -47081.802 3.6825473e-11 
    3040 1.4855565e-07 4.781379e-09   -100.22289   -47081.802 4.5522311e-11 
    3050 1.8374729e-07 5.9140492e-09   -100.22289   -47081.802 5.6276277e-11 
    3060 2.2728743e-07 7.3154222e-09   -100.22289   -47081.802 6.9574687e-11 
    3070 2.8115924e-07 9.0493285e-09   -100.22289   -47081.802 8.6020467e-11 
    3080 3.4781765e-07 1.1194781e-08   -100.22289   -47081.802 1.0635961e-10 
    3090 4.3030158e-07 1.384959e-08   -100.22289   -47081.802 1.3151517e-10 
    3100 5.3237315e-07 1.7134843e-08   -100.22289   -47081.802 1.6262935e-10 
    3110 6.5868994e-07 2.1200447e-08   -100.22289   -47081.802 2.011156e-10 
    3120 8.1501836e-07 2.6231998e-08   -100.22289   -47081.802 2.487231e-10 
    3130 1.008498e-06 3.245929e-08   -100.22289   -47081.802 3.0761661e-10 
    3140 1.2479689e-06 4.0166847e-08   -100.22289   -47081.802 3.8047538e-10 
    3150 1.5443771e-06 4.9706977e-08   -100.22289   -47081.802 4.7061549e-10 
    3160 1.9112771e-06 6.1515938e-08   -100.22289   -47081.802 5.8214149e-10 
    3170 2.3654538e-06 7.6133966e-08   -100.22289   -47081.802 7.2013406e-10 
    3180 2.9276933e-06 9.4230082e-08   -100.22289   -47081.801 8.9088249e-10 
    3190 3.6237382e-06 1.1663283e-07   -100.22289   -47081.801 1.1021724e-09 
    3200 4.4854704e-06 1.4436834e-07   -100.22289   -47081.801 1.3636425e-09 
    3210 5.5523766e-06 1.7870755e-07   -100.22289   -47081.801 1.6872255e-09 
    3220 6.8733649e-06 2.2122458e-07   -100.22289   -47081.801 2.0876958e-09 
    3230 8.5090147e-06 2.7386924e-07   -100.22289   -47081.801 2.5833458e-09 
    3240 1.0534365e-05 3.390567e-07   -100.22289   -47081.801 3.1968254e-09 
    3250 1.3042368e-05 4.1977874e-07   -100.22289   -47081.801 3.956181e-09 
    3260 1.6148173e-05 5.1974149e-07   -100.22289   -47081.801 4.8961426e-09 
    3270 1.999443e-05 6.4353624e-07   -100.22289   -47081.801 6.0597182e-09 
    3280 2.4757862e-05  7.96851e-07   -100.22289   -47081.801 7.5001696e-09 
    3290 3.0657418e-05 9.867328e-07   -100.22289     -47081.8 9.2834591e-09 
    3300 3.7964368e-05 1.2219127e-06   -100.22289     -47081.8 1.1491282e-08 
    3310 4.7014818e-05 1.5132084e-06   -100.22289     -47081.8 1.4224822e-08 
    3320 5.8225221e-05 1.8740239e-06   -100.22289   -47081.799 1.7609408e-08 
    3330 7.2111609e-05 2.3209681e-06   -100.22289   -47081.799 2.1800277e-08 
    3340 8.9313417e-05 2.8746217e-06   -100.22289   -47081.798 2.6989723e-08 
    3350 0.00011062303 3.560488e-06   -100.22289   -47081.797 3.3415952e-08 
    3360 0.00013702238 4.4101718e-06   -100.22289   -47081.796 4.1374053e-08 
    3370 0.00016972839 5.4628398e-06   -100.22289   -47081.795 5.1229595e-08 
    3380 0.00021024916 6.7670323e-06   -100.22289   -47081.793 6.3435481e-08 
    3390 0.0002604538 8.3829077e-06   -100.22289   -47081.791 7.855283e-08 
    3400 0.00032265888 1.0385026e-05   -100.22289   -47081.789 9.7276861e-08 
    3410 0.00039973563 1.2865802e-05    -100.2229   -47081.786 1.2046897e-07 
    3420 0.00049524289 1.5939777e-05    -100.2229   -47081.782 1.4919649e-07 
    3430 0.0006135919 1.9748932e-05    -100.2229   -47081.777 1.8478197e-07 
    3440 0.00076025063 2.4469257e-05   -100.22291   -47081.772 2.2886427e-07 
    3450 0.00094199713 3.0318909e-05   -100.22291   -47081.764 2.8347427e-07 
    3460 0.0011672336 3.756832e-05   -100.22292   -47081.756 3.5112872e-07 
    3470 0.0014463761 4.6552738e-05   -100.22292   -47081.745 4.3494662e-07 
    3480 0.0017923372 5.7687763e-05   -100.22293   -47081.731 5.3879341e-07 
    3490 0.0022211249 7.1488628e-05   -100.22294   -47081.714 6.674598e-07 
    3500 0.0027525853 8.8594095e-05   -100.22296   -47081.693 8.2688342e-07 
    3510 0.0034113234 0.00010979609   -100.22297   -47081.667 1.0244237e-06 
    3520 0.0042278443 0.00013607645   -100.22299   -47081.635 1.2692023e-06 
    3530 0.0052399691 0.00016865247   -100.22302   -47081.596 1.5725259e-06 
    3540 0.0064945901 0.00020903342   -100.22305   -47081.547 1.9484096e-06 
    3550 0.0080498466 0.00025909056   -100.22309   -47081.486 2.4142262e-06 
    3560  0.009977823 0.00032114398   -100.22313   -47081.411 2.991511e-06 
    3570  0.012367893 0.00039807024   -100.22319   -47081.317 3.7069603e-06 
    3580  0.015330866 0.00049343581   -100.22327   -47081.202 4.5936678e-06 
    3590  0.019004123 0.00061166244   -100.22336   -47081.058 5.6926593e-06 
    3600  0.023557986 0.00075823206   -100.22347   -47080.881 7.0547935e-06 
    3610  0.029203604 0.00093994067   -100.22361   -47080.661 8.7431197e-06 
    3620  0.036202724 0.0011652128   -100.22378   -47080.388 1.0835799e-05 
    3630  0.044879784 0.0014444907     -100.224    -47080.05 1.3429728e-05 
    3640  0.055636883 0.0017907162   -100.22426   -47079.632 1.6645021e-05 
    3650  0.068972296 0.0022199269   -100.22459   -47079.114 2.0630577e-05 
    3660  0.085503358  0.002751992     -100.225   -47078.472 2.5570964e-05 
    3670   0.10599473 0.0034115226    -100.2255   -47077.677 3.1694951e-05 
    3680   0.13139324 0.0042289935   -100.22613   -47076.693 3.9286067e-05 
    3690   0.16287088 0.0052421258   -100.22691   -47075.474 4.8695675e-05 
    3700   0.20187758 0.0064975867   -100.22787   -47073.965 6.0359133e-05 
    3710   0.25020607 0.0080530767   -100.22906   -47072.099 7.4815771e-05 
    3720   0.31007125 0.0099798839   -100.23053   -47069.791 9.2733572e-05 
    3730   0.38420701  0.012366001   -100.23236   -47066.939 0.00011493961 
    3740   0.47598391  0.015319912   -100.23462   -47063.415 0.00014245755 
    3750   0.58955149  0.018975172   -100.23741   -47059.066 0.00017655379 
    3760   0.73000908  0.023495909   -100.24086   -47053.704 0.00021879412 
    3770   0.90360945  0.029083372   -100.24513   -47047.101 0.00027111307 
    3780    1.1179988  0.035983659    -100.2504   -47038.983 0.00033589865 
    3790    1.3824959  0.044496705   -100.25688    -47029.02 0.00041609537 
    3800    1.7084113  0.054986544   -100.26487   -47016.822 0.00051532902 
    3810    2.1094032  0.067892781   -100.27469   -47001.926 0.00063805693 
    3820    2.6018634  0.083742993   -100.28672   -46983.794 0.0007897475 
    3830    3.2053153   0.10316556   -100.30144   -46961.806 0.00097709317 
    3840    3.9428001   0.12690208   -100.31938   -46935.255   0.00120826 
    3850    4.8412105   0.15581812   -100.34118    -46903.35 0.0014931768 
    3860      5.93152   0.19091058   -100.36754   -46865.213 0.0018438645 
    3870    7.2488443   0.23330968   -100.39926   -46819.879 0.0022748048 
    3880    8.8322641   0.28427327    -100.4372   -46766.291 0.0028033433 
    3890    10.724345   0.34517136   -100.48227   -46703.281 0.0034501187 
    3900    12.970303   0.41745926    -100.5354   -46629.532  0.004239507 
    3910    15.616789   0.50263848   -100.59748   -46543.529 0.0052000624 
    3920    18.710285   0.60220504   -100.66936   -46443.494 0.0063649372 
    3930    22.295134   0.71758619   -100.75173   -46327.312 0.0077722554 
    3940    26.411308   0.85006844   -100.84508   -46192.443 0.0094654156 
    3950    31.092075    1.0007226   -100.94967   -46035.831  0.011493296 
    3960    36.361802    1.1703328   -101.06542   -45853.832  0.013910345 
    3970    42.234105    1.3593374   -101.19192   -45642.233  0.016776534 
    3980    48.710324    1.5677796   -101.32837   -45396.446  0.020157171 
    3990    55.778114    1.7952619   -101.47357   -45111.828  0.024122561 
    4000    63.410197    2.0409064   -101.62594   -44783.911  0.028747492 
    4010     71.56377    2.3033355   -101.78348   -44408.516  0.034110534 
    4020    80.180938    2.5806857   -101.94381   -43981.974  0.040293179 
    4030    89.189933    2.8706472   -102.10428   -43501.483  0.047378832 
    4040    98.506963    3.1705231   -102.26201   -42965.415  0.055451685 
    4050    108.03884    3.4773138   -102.41399   -42373.463  0.064595489 
    4060    117.68654    3.7878327   -102.55721   -41726.665  0.074892284 
    4070    127.34964    4.0988469   -102.68877   -41027.382  0.086421124 
    4080    136.93105    4.4072321   -102.80607     -40279.2   0.09925688 
    4090    146.34199    4.7101305   -102.90689   -39486.661   0.11346916 
    4100    155.50673    5.0051048   -102.98956   -38654.882   0.12912141 
    4110    164.36704    5.2902808   -103.05304    -37789.15   0.14627029 
    4120    172.88582    5.5644643   -103.09702   -36894.528   0.16496528 
    4130    181.04982     5.827229   -103.12195    -35975.46   0.18524861 
    4140    188.87156    6.0789777   -103.12909   -35035.378    0.2071555 
    4150    196.39062    6.3209845    -103.1205     -34076.4   0.23071468 
    4160    203.67438    6.5554178   -103.09904   -33099.183   0.25594923 
    4170    210.81756    6.7853267   -103.06833   -32103.029   0.28287763 
    4180    217.93944    7.0145501   -103.03264   -31086.265   0.31151503 
    4190    225.17761    7.2475163   -102.99672   -30046.668   0.34187453 
    4200    232.68056    7.4890045    -102.9655   -28981.349   0.37396843 
    4210    240.60382    7.7440205   -102.94407   -27886.826   0.40780955 
    4220    249.10447    8.0176207   -102.93745   -26760.817    0.4434127 
    4230    258.32478    8.3143835   -102.95019   -25604.157   0.48079595 
    4240    268.36441    8.6375169   -102.98547   -24421.463   0.51998117 
    4250    279.25504    8.9880402   -103.04445   -23218.849   0.56099325 
    4260    290.95807    9.3647113   -103.12627   -22000.412   0.60385895 
    4270    303.39316    9.7649442   -103.22901   -20766.943   0.64860601 
    4280    316.46113    10.185547   -103.35056   -19521.345   0.69526353 
    4290     330.0359    10.622462   -103.48829   -18270.976   0.74386209 
    4300    343.95599    11.070491   -103.63886   -17025.214   0.79443306 
    4310    358.00858    11.522784   -103.79768   -15795.903   0.84700717 
    4320    371.91456    11.970359   -103.95851   -14589.887   0.90161081 
    4330    385.38852    12.404029   -104.11528   -13408.574   0.95826192 
    4340    398.17608    12.815606   -104.26322    -12251.03    1.0169682 
    4350    410.02973    13.197125   -104.39797   -11114.367    1.0777241 
    4360    420.72953    13.541506   -104.51612   -10002.281    1.1405064 
    4370     430.1303    13.844078   -104.61657    -8929.147    1.2052729 
    4380    438.19154    14.103535   -104.70138   -7904.2719    1.2719658 
    4390    444.95831    14.321329   -104.77504   -6927.5172    1.3405178 
    4400    450.48957    14.499356   -104.84209   -5999.9578    1.4108526 
    4410    454.81515    14.638579   -104.90578   -5126.8307    1.4828809 
    4420    457.88773    14.737472   -104.96642    -4307.121    1.5564944 
    4430    459.59501    14.792422   -105.02173   -3535.1677    1.6315612 
    4440    459.78675    14.798593   -105.06761   -2808.5657    1.7079245 
    4450    458.27519    14.749943   -105.09791   -2129.8355    1.7854013 
    4460    454.89444    14.641131   -105.10625   -1505.6283    1.8637799 
    4470    449.60422    14.470861   -105.08923   -944.32713    1.9428189 
    4480    442.56677    14.244355   -105.04889   -449.61527    2.0222512 
    4490    434.13631    13.973014   -104.99265   -22.395202    2.1017925 
    4500    424.79013      13.6722    -104.9314    340.11755    2.1811498 
    4510    415.02695    13.357964    -104.8766     647.6712    2.2600327 
    4520    405.13136    13.039467   -104.83303    918.03533    2.3381594 
    4530    395.11941    12.717225   -104.79702    1156.7755    2.4152513 
    4540    384.86996    12.387338   -104.76064    1359.6152    2.4910294 
    4550    374.25185    12.045586   -104.71581    1522.2085     2.565215 
    4560    363.29295    11.692866   -104.65973    1636.3648    2.6375375 
    4570    352.28467    11.338556   -104.59855    1694.1916    2.7077509 
    4580    341.71796    10.998458   -104.54553    1692.7455    2.7756546 
    4590    332.14878    10.690466   -104.51696     1636.068    2.8411092 
    4600    324.05018    10.429807   -104.52736    1533.5035    2.9040487 
    4610    317.64506    10.223653   -104.58402    1396.8924    2.9644839 
    4620    312.76616    10.066622   -104.68209    1236.9849    3.0224926 
    4630    308.86662    9.9411118   -104.80451    1059.9536     3.078197 
    4640     305.2209    9.8237714   -104.92812    872.67883    3.1317346 
    4650    301.22025    9.6950076   -105.03303    683.42215    3.1832354 
    4660    296.56701    9.5452392     -105.109    500.26144    3.2328133 
    4670     291.2879    9.3753272    -105.1561    329.76795    3.2805661 
    4680    285.64022    9.1935523    -105.1819    177.58518    3.3265806 
    4690    279.97101    9.0110843   -105.19709    47.099075    3.3709359 
    4700     274.6475    8.8397428    -105.2133   -64.433602    3.4137076 
    4710    270.01195    8.6905442    -105.2417   -165.51812    3.4549745 
    4720    266.33856    8.5723134   -105.29151   -259.98382    3.4948277 
    4730    263.81195    8.4909923   -105.36929   -344.11374     3.533375 
    4740    262.51865    8.4493663   -105.47862   -416.65103     3.570743 
    4750    262.43112    8.4465493   -105.61944   -481.04673    3.6070759 
    4760    263.38769    8.4773373   -105.78739   -538.78236    3.6425327 
    4770    265.11691    8.5329935    -105.9745    -590.2192    3.6772821 
    4780    267.29126    8.6029765   -106.17087   -640.27849    3.7114965 
    4790    269.55178    8.6757331   -106.36542     -694.771    3.7453459 
    4800    271.51178    8.7388174   -106.54602   -755.08994    3.7789895 
    4810     272.7899    8.7799547    -106.7005   -817.61115    3.8125683 
    4820    273.05571    8.7885101   -106.81809   -873.67905    3.8461948 
    4830    272.11465    8.7582213   -106.89218   -918.20843    3.8799406 
    4840     270.0054    8.6903332   -106.92353   -948.65839    3.9138286 
    4850    266.98534    8.5931303   -106.91987   -958.53027    3.9478324 
    4860    263.45507    8.4795059   -106.89358   -941.82626     3.981883 
    4870    259.89894     8.365049   -106.85987   -898.85958    4.0158799 
    4880    256.81447     8.265773   -106.83454    -836.8936    4.0497061 
    4890    254.62572    8.1953264   -106.83119   -766.85991    4.0832454 
    4900    253.57968    8.1616589    -106.8579   -700.52377    4.1163962 
    4910    253.62995    8.1632769   -106.91341   -646.14981    4.1490789 
    4920    254.46685    8.1902132   -106.98797   -600.76052     4.181238 
    4930     255.6878    8.2295103   -107.06884   -557.12022    4.2128426 
    4940    256.93183    8.2695503   -107.14454   -512.00078    4.2438874 
    4950    257.99172    8.3036638   -107.20852   -463.78835    4.2743898 
    4960    258.81475    8.3301535   -107.25915   -410.54401    4.3043842 
    4970    259.44988    8.3505956   -107.29809   -357.45082    4.3339112 
    4980       260.02    8.3689456   -107.32932   -317.72503    4.3630063 
    4990    260.70253    8.3909134   -107.35863   -303.50256    4.3916917 
    5000    261.68728    8.4226081   -107.39219   -322.46445     4.419974 
    5010    263.12463    8.4688704   -107.43493   -375.10255    4.4478443 
    5020    265.10682    8.5326688   -107.48997   -456.66904    4.4752805 
    5030    267.67252    8.6152477   -107.55874   -561.66589    4.5022499 
    5040    270.80157    8.7159587   -107.64081   -683.24269    4.5287133 
    5050    274.43465    8.8328923   -107.73461   -815.08536    4.5546319 
    5060    278.54125    8.9650664   -107.83952   -948.56713    4.5799755 
    5070     283.1744    9.1141877   -107.95772   -1068.5966    4.6047315 
    5080    288.44421    9.2838006    -108.0933   -1159.2813    4.6289133 
    5090    294.37864     9.474805   -108.24781   -1216.3207    4.6525641 
    5100    300.70406    9.6783934   -108.41326    -1251.002     4.675755 
    5110    306.76034    9.8733197   -108.56936   -1269.6177    4.6985801 
    5120    311.70218    10.032376   -108.68999    -1272.084    4.7211464 
    5130    314.76392    10.130921   -108.75154   -1256.2107    4.7435583 
    5140    315.52199     10.15532   -108.74117   -1214.0567    4.7659036 
    5150    314.01458    10.106803    -108.6605   -1143.3327    4.7882428 
    5160    310.65244    9.9985899   -108.52271   -1052.3215    4.8106039 
    5170    306.05837    9.8507261   -108.34738   -953.44802    4.8329856 
    5180    300.97722    9.6871855   -108.15779   -857.13355    4.8553608 
    5190    296.16647    9.5323478   -107.97749   -776.59376    4.8776782 
    5200    292.28276    9.4073476    -107.8268   -721.26618    4.8998639 
    5210    289.81485    9.3279159   -107.72078   -695.03153    4.9218317 
    5220    289.07613    9.3041396     -107.669   -704.13756    4.9435023 
    5230    290.25789    9.3421754   -107.67733   -756.34888    4.9648271 
    5240    293.38468    9.4428136   -107.74655   -838.15371    4.9858142 
    5250    298.12407    9.5953546   -107.86623   -929.23393     5.006551 
    5260    303.75327    9.7765348   -108.01366   -1017.7936    5.0272086 
    5270    309.38879    9.9579183   -108.16128   -1089.9624    5.0480244 
    5280    314.26844    10.114974   -108.28554   -1132.9517    5.0692695 
    5290    317.88148    10.231262   -108.37097   -1147.8154    5.0912112 
    5300    320.02448    10.300236   -108.41183   -1149.8524    5.1140795 
    5310    320.82925    10.326138   -108.41291    -1149.759    5.1380444 
    5320    320.67973    10.321326   -108.38681   -1151.5867     5.163202 
    5330    320.06085    10.301407   -108.34917    -1162.175    5.1895712 
    5340    319.40929    10.280436   -108.31395   -1188.5244    5.2171042 
    5350    318.99943    10.267244   -108.28986   -1231.0992    5.2457067 
    5360    318.90884    10.264329   -108.27931   -1286.2598    5.2752582 
    5370    319.12571    10.271309   -108.28189   -1345.3632    5.3056249 
    5380    319.65848    10.288456   -108.29791   -1391.8618    5.3366739 
    5390    320.56648    10.317681   -108.32938   -1410.8793     5.368294 
    5400    321.92097    10.361276   -108.37879   -1395.7541     5.400413 
    5410    323.70599    10.418729    -108.4459   -1355.8596    5.4329986 
    5420    325.72592    10.483742   -108.52476   -1301.7271    5.4660438 
    5430    327.57778    10.543345   -108.60282   -1224.4344    5.4995413 
    5440    328.77847     10.58199   -108.66486    -1118.029    5.5334607 
    5450    328.86686    10.584835   -108.69621   -986.27091    5.5677387 
    5460    327.48205    10.540264   -108.68516   -838.72785    5.6022774 
    5470    324.45935    10.442976   -108.62594   -684.18705    5.6369495 
    5480    319.91564    10.296733   -108.52152   -531.87512    5.6716088 
    5490    314.30743    10.116229   -108.38554   -394.54117    5.7061039 
    5500    308.36549    9.9249827   -108.24037   -281.23952    5.7402912 
    5510    302.94317    9.7504611   -108.11243   -194.29394    5.7740476 
    5520    298.85892    9.6190062   -108.02731   -134.60512    5.8072813 
    5530    296.71685     9.550062   -108.00405   -106.05471    5.8399392 
    5540    296.76574    9.5516357   -108.05064   -113.44351    5.8720101 
    5550    298.86423    9.6191772   -108.16288   -159.69898     5.903522 
    5560    302.54647    9.7376928   -108.32635   -243.73293    5.9345328 
    5570     307.1534    9.8859706   -108.52063   -360.52692    5.9651169 
    5580    311.94305    10.040129   -108.72269   -499.95877    5.9953495 
    5590    316.14873    10.175492   -108.90863   -650.97124    6.0252911 
    5600    319.06964    10.269504   -109.05652   -809.41446    6.0549768 
    5610    320.19059    10.305583   -109.15002   -972.13132    6.0844153 
    5620    319.29056    10.276615   -109.18188   -1130.6544    6.1135883 
    5630    316.42678    10.184441   -109.15338   -1278.9515     6.142446 
    5640    311.88696    10.038324   -109.07286   -1407.3117    6.1709075 
    5650    306.16363    9.8541142   -108.95504   -1495.3101    6.1988693 
    5660    299.86451     9.651372   -108.81829   -1533.3339    6.2262243 
    5670    293.62968    9.4506992   -108.68214   -1530.0655    6.2528789 
    5680    288.08123    9.2721181   -108.56572   -1506.3468    6.2787661 
    5690    283.76942    9.1333391   -108.48617   -1481.8192    6.3038548 
    5700    281.09772    9.0473482   -108.45617   -1470.1553    6.3281581 
    5710     280.2546    9.0202117   -108.48182   -1484.1018    6.3517387 
    5720    281.20259    9.0507237   -108.56213   -1535.5944    6.3747064 
    5730    283.74943    9.1326955   -108.69136   -1631.5254     6.397213 
    5740    287.63881    9.2578784   -108.86184   -1766.1453    6.4194423 
    5750    292.55584    9.4161369   -109.06418   -1925.0107    6.4415993 
    5760    298.05653    9.5931808   -109.28492   -2096.1683    6.4638964 
    5770    303.53371    9.7694681    -109.5054   -2271.2294    6.4865389 
    5780    308.29218    9.9226231   -109.70407   -2439.4311    6.5097095 
    5790    311.69766    10.032231   -109.86114   -2586.0493    6.5335513 
    5800    313.33177    10.084826    -109.9635   -2694.6831    6.5581535 
    5810     313.0281    10.075052   -110.00578   -2749.0057     6.583544 
    5820     310.7909    10.003046   -109.98774   -2740.7423    6.6096938 
    5830    306.78696    9.8741764   -109.91402    -2676.635    6.6365261 
    5840    301.37139    9.6998721   -109.79506   -2569.2302    6.6639283 
    5850    295.03344    9.4958802   -109.64551   -2426.5733    6.6917652 
    5860    288.29666    9.2790519   -109.48109   -2257.7307    6.7198917 
    5870    281.63418    9.0646147   -109.31604   -2076.9276     6.748164 
    5880    275.44836    8.8655191   -109.16245   -1894.7382    6.7764534 
    5890    270.09472     8.693208    -109.0311   -1719.1622    6.8046546 
    5900    265.88368    8.5576726    -108.9315   -1561.6885    6.8326868 
    5910    263.04521    8.4663141   -108.87078   -1433.1444    6.8604923 
    5920    261.66446    8.4218737   -108.85156   -1339.8042    6.8880348 
    5930    261.62466    8.4205926   -108.87008   -1279.4637    6.9152953 
    5940     262.6048    8.4521392   -108.91608   -1242.5358    6.9422671 
    5950      264.123    8.5010037   -108.97421   -1216.1689    6.9689487 
    5960    265.62281    8.5492764    -109.0267   -1190.4163    6.9953359 
    5970    266.59109    8.5804412   -109.05719   -1162.6418    7.0214147 
    5980    266.67757    8.5832245    -109.0545   -1137.8642    7.0471579 
    5990    265.78542    8.5545102   -109.01554    -1125.619    7.0725258 
    6000    264.11617    8.5007841   -108.94673   -1133.4821      7.09747 
    6010    262.15462    8.4376498   -108.86355   -1165.7962    7.1219434 
    6020     260.5783    8.3869149   -108.78759   -1219.9442    7.1459149 
    6030    260.12689    8.3723858   -108.74245   -1288.0371    7.1693827 
    6040    261.41682    8.4139034   -108.74776   -1367.1175    7.1923828 
    6050    264.75985    8.5215013   -108.81344    -1460.701     7.214992 
    6060    270.07776    8.6926624   -108.93698    -1573.959    7.2373239 
    6070    276.94554     8.913707   -109.10498   -1711.4308    7.2595214 
    6080    284.66733     9.162239   -109.29565   -1867.0528    7.2817459 
    6090    292.39305    9.4108971   -109.48253   -2023.4431    7.3041656 
    6100    299.33378    9.6342901   -109.64143   -2158.3895    7.3269401 
    6110    304.92841    9.8143574   -109.75558   -2254.3252     7.350206 
    6120    308.91778    9.9427583   -109.81789   -2306.8187    7.3740704 
    6130    311.33066    10.020419   -109.83032   -2324.7097    7.3986106 
    6140    312.40794    10.055092   -109.80135   -2321.1436    7.4238766 
    6150    312.52724    10.058932   -109.74356   -2305.8063    7.4498937 
    6160    312.10962     10.04549   -109.67068   -2287.5193    7.4766669 
    6170    311.52593    10.026704   -109.59463   -2270.4766     7.504183 
    6180    311.05289    10.011479   -109.52421   -2251.8325    7.5324098 
    6190    310.81488    10.003818   -109.46331   -2221.2028    7.5612925 
    6200    310.74372    10.001528   -109.40965    -2167.922    7.5907528 
    6210    310.65978     9.998826   -109.35739   -2090.0043    7.6206896 
    6220    310.39143     9.990189   -109.30103   -1990.2014    7.6509866 
    6230    309.83482    9.9722742   -109.23718   -1871.0487    7.6815204 
    6240    308.93631    9.9433547   -109.16408   -1734.9323    7.7121661 
    6250    307.66533    9.9024474   -109.08063   -1585.9957    7.7427974 
    6260    305.99078    9.8485508   -108.98566   -1425.1428    7.7732838 
    6270     303.8731    9.7803915   -108.87766   -1246.6872     7.803487 
    6280    301.31005    9.6978979   -108.75626   -1048.8704    7.8332601 
    6290    298.38872    9.6038725   -108.62388   -842.60353    7.8624491 
    6300    295.31638    9.5049869   -108.48678   -648.26543    7.8908948 
    6310    292.43622    9.4122868   -108.35551   -486.95856    7.9184421 
    6320    290.17582     9.339534   -108.24337   -370.39375    7.9449593 
    6330    288.97093    9.3007535   -108.16393   -300.14504    7.9703598 
    6340    289.20647    9.3083346   -108.12925   -272.09251    7.9946186 
    6350    291.13693    9.3704681   -108.14732   -281.29422    8.0177839 
    6360    294.80207    9.4884335   -108.21946   -321.80393     8.039986 
    6370    299.95753    9.6543658   -108.33808    -384.1219    8.0614357 
    6380     306.0825    9.8515029   -108.48704   -461.85551    8.0824102 
    6390    312.48704    10.057638   -108.64503   -549.82574     8.103233 
    6400     318.4532    10.249663   -108.79006   -640.69117    8.1242524 
    6410    323.38056    10.408254   -108.90401   -721.93853    8.1458217 
    6420    326.90539    10.521704   -108.97629   -779.42709    8.1682809 
    6430    328.93406    10.586998   -109.00477   -808.05074    8.1919402 
    6440    329.55614     10.60702   -108.99291   -814.51468    8.2170674 
    6450    328.94194    10.587252   -108.94647   -808.78501     8.243879 
    6460     327.3015    10.534453   -108.87216   -797.81439    8.2725349 
    6470    324.87081    10.456219    -108.7773   -791.49246    8.3031339 
    6480    321.92186    10.361305    -108.6702   -794.08564    8.3357082 
    6490     318.7987    10.260783   -108.56136   -795.09337    8.3702218 
    6500    315.88553    10.167021   -108.46257   -778.74656    8.4065762 
    6510    313.53277    10.091296   -108.38454   -736.13735    8.4446185 
    6520    312.03676    10.043145   -108.33639   -671.00749    8.4841525 
    6530    311.63794    10.030309   -108.32558   -599.14235    8.5249488 
    6540    312.46028    10.056777   -108.35604   -538.44052    8.5667536 
    6550    314.47141    10.121506   -108.42691   -499.20127    8.6092957 
    6560    317.49275    10.218751   -108.53281   -486.05806    8.6522973 
    6570    321.23196      10.3391   -108.66493   -503.57187    8.6954848 
    6580    325.33718     10.47123   -108.81267   -548.01018    8.7385979 
    6590    329.31954    10.599405   -108.96111   -595.85328    8.7813949 
    6600    332.54745    10.703298    -109.0907   -621.37888    8.8236516 
    6610    334.33285    10.760762   -109.17988   -606.15243    8.8651527 
    6620    334.05952    10.751965   -109.20899   -543.82267    8.9056801 
    6630    331.36703    10.665305    -109.1661   -435.99655    8.9450063 
    6640    326.26151     10.50098   -109.05052   -283.87513    8.9828976 
    6650    319.13097    10.271478   -108.87333   -91.357491    9.0191224 
    6660     310.6923    9.9998727   -108.65596    126.96831    9.0534643 
    6670     301.8896     9.716551   -108.42708    349.28975    9.0857382 
    6680     293.7497    9.4545621   -108.21829    551.70906    9.1158054 
    6690    287.18825    9.2433766     -108.058    708.64497    9.1435877 
    6700    282.82122    9.1028206   -107.96542    802.05639    9.1690784 
    6710    280.87798    9.0402757   -107.94774    827.36019    9.1923453 
    6720    281.22982       9.0516   -108.00093    790.34155    9.2135303 
    6730    283.48667    9.1242385    -108.1128    700.48852    9.2328442 
    6740    287.12323     9.241284   -108.26699    567.70233    9.2505607 
    6750    291.57346     9.384518    -108.4459    409.20548    9.2670034 
    6760    296.26489    9.5355154   -108.63182    249.08022    9.2825276 
    6770    300.66512    9.6771403   -108.80831    108.90002    9.2975012 
    6780    304.34695    9.7956429   -108.96225    5.9343408    9.3122874 
    6790    306.99824    9.8809767   -109.08409   -42.581073    9.3272294 
    6800     308.3949    9.9259292   -109.16692   -27.203094    9.3426373 
    6810    308.42526    9.9269063   -109.20724     41.44141    9.3587746 
    6820    307.08709    9.8838363   -109.20479     149.7627    9.3758439 
    6830    304.45934    9.7992602   -109.16171    291.07738    9.3939728 
    6840    300.80064     9.681502   -109.08571    461.92286    9.4132014 
    6850    296.60292    9.5463952   -108.99192     653.0932    9.4334798 
    6860    292.51067    9.4146831   -108.90041    853.05572    9.4546762 
    6870    289.17388    9.3072858   -108.83153    1051.7946     9.476594 
    6880    287.10157    9.2405867   -108.80133    1236.9015    9.4989941 
    6890    286.54441    9.2226542   -108.81777    1390.7565    9.5216195 
    6900    287.41688    9.2507353    -108.8782    1500.7908    9.5442168 
    6910    289.31477    9.3118203   -108.96986    1568.5023    9.5665513 
    6920    291.64108    9.3866944   -109.07389    1604.8519    9.5884179 
    6930    293.78584    9.4557253   -109.17099    1618.7706    9.6096434 
    6940    295.30736    9.5046964   -109.24722    1612.2946    9.6300815 
    6950    296.07051     9.529259   -109.29839    1585.3502    9.6496057 
    6960    296.26233    9.5354329   -109.33058    1537.4542    9.6681092 
    6970    296.27869    9.5359595   -109.35655    1468.1532    9.6855107 
    6980    296.52713    9.5439558   -109.38941    1379.0822    9.7017641 
    6990    297.23923    9.5668752    -109.4367     1276.391    9.7168704 
    7000    298.38246    9.6036712   -109.49752    1167.2254    9.7308868 
    7010    299.69471    9.6459067   -109.56364    1057.8044    9.7439279 
    7020    300.81339    9.6819125   -109.62357    951.68208    9.7561527 
    7030    301.40844    9.7010645   -109.66686    855.30112    9.7677513 
    7040    301.20005    9.6943574   -109.68453    784.10899    9.7789335 
    7050    300.05394     9.657469   -109.67214    745.53168    9.7899118 
    7060    298.09488     9.594415   -109.63346     741.0751    9.8008818 
    7070    295.66291    9.5161404   -109.57907    764.38667    9.8120126 
    7080    293.29044    9.4397806   -109.52572     795.6353    9.8234505 
    7090    291.65624    9.3871824   -109.49493     813.5174    9.8353233 
    7100    291.43086    9.3799285   -109.50815    807.88124    9.8477361 
    7110    293.04958     9.432028   -109.57945    777.03745    9.8607638 
    7120    296.53525    9.5442172   -109.70996    720.32974    9.8744452 
    7130    301.48846    9.7036401   -109.88745    637.37142    9.8887802 
    7140    307.26693    9.8896247   -110.09209    537.21086    9.9037238 
    7150    313.21521    10.081075   -110.30377    436.74379    9.9191836 
    7160     318.7018    10.257665   -110.50322    348.62539      9.93503 
    7170    323.04486    10.397449   -110.66943    281.81437    9.9511064 
    7180    325.53967    10.477747   -110.78043    239.21233    9.9672389 
    7190    325.60175    10.479745   -110.81768     214.4767    9.9832437 
    7200    322.98812    10.395623   -110.77308    203.42657    9.9989357 
    7210    317.91252    10.232261   -110.65268     205.7183    10.014138 
    7220    310.98644     10.00934   -110.47488    222.04303    10.028691 
    7230    303.10491    9.7556667   -110.26704    256.40036    10.042459 
    7240    295.30142    9.5045052   -110.06101    307.51679    10.055334 
    7250    288.55711    9.2874346   -109.88724    364.17955    10.067246 
    7260    283.61031    9.1282179   -109.76871     411.5093    10.078172 
    7270    280.78884    9.0374068   -109.71557    440.41324    10.088152 
    7280    279.96175    9.0107861   -109.72352    448.03504    10.097287 
    7290    280.65104    9.0329715   -109.77729    436.60213    10.105725 
    7300    282.21709    9.0833762    -109.8565    409.84275    10.113649 
    7310    284.05664    9.1425835   -109.94199    374.85126    10.121263 
    7320    285.74118    9.1968018   -110.02022    337.56494    10.128782 
    7330    287.07317    9.2396729   -110.08504    296.39861    10.136422 
    7340    288.05534    9.2712845    -110.1367    239.44256    10.144376 
    7350    288.81909    9.2958664   -110.17954    149.08764    10.152815 
    7360    289.53978    9.3190624   -110.21931    11.509887    10.161878 
    7370    290.32801    9.3444324   -110.25969   -172.75453    10.171685 
    7380    291.15182    9.3709474   -110.29976   -386.99927    10.182331 
    7390    291.81211    9.3921992   -110.33322   -612.60169    10.193885 
    7400    292.00914    9.3985407   -110.35051   -837.64646    10.206386 
    7410     291.4789    9.3814748   -110.34313   -1052.3608     10.21985 
    7420    290.13082    9.3380855   -110.30805   -1240.6633    10.234276 
    7430     288.1163    9.2732468   -110.24994   -1385.1058    10.249652 
    7440    285.74776    9.1970133   -110.17854   -1478.1757    10.265953 
    7450    283.34611    9.1197145   -110.10388   -1524.1858    10.283134 
    7460    281.14687    9.0489302   -110.03319   -1533.7347    10.301123 
    7470    279.30159    8.9895384   -109.97106   -1513.3006    10.319814 
    7480    277.93201    8.9454573   -109.92116   -1463.5768    10.339064 
    7490    277.15559    8.9204677    -109.8871    -1384.905    10.358703 
    7500    277.07365    8.9178305   -109.87202   -1277.6897    10.378536 
    7510    277.71098    8.9383436   -109.87666   -1145.3358    10.398364 
    7520    278.94938    8.9782023   -109.89728    -998.8644    10.417986 
    7530    280.50679    9.0283286    -109.9249   -850.56568    10.437215 
    7540    281.95057    9.0747981   -109.94579   -697.92784    10.455886 
    7550    282.78301    9.1015907   -109.94415    -531.4662    10.473864 
    7560    282.61675    9.0962395    -109.9077   -346.26477    10.491043 
    7570    281.39266     9.056841   -109.83462   -140.07033    10.507346 
    7580     279.4894    8.9955832   -109.73706    81.966291    10.522725 
    7590    277.64805    8.9363181   -109.63868    305.11625    10.537158 
    7600    276.76698    8.9079602   -109.56812    511.75842    10.550667 
    7610    277.60389    8.9348965   -109.54946    687.05426    10.563331 
    7620    280.49232    9.0278629   -109.59323    822.04891      10.5753 
    7630    285.23885    9.1806338   -109.69325    917.09523    10.586789 
    7640     291.2107    9.3728422   -109.82948    978.96685    10.598066 
    7650    297.52462    9.5760609   -109.97419    1016.7393    10.609416 
    7660    303.26129    9.7606999   -110.09876    1040.7886    10.621102 
    7670    307.66247    9.9023553   -110.17991    1058.7842    10.633342 
    7680    310.27497    9.9864407   -110.20409    1075.7215     10.64629 
    7690    310.97207    10.008877   -110.16804    1091.3957     10.66004 
    7700     309.8636    9.9732003   -110.07577    1101.4023    10.674633 
    7710    307.22283    9.8882051   -109.93619    1101.1667    10.690074 
    7720    303.47788    9.7676711   -109.76284    1089.5197    10.706344 
    7730    299.18954    9.6296477   -109.57329    1064.6798    10.723411 
    7740    294.97492    9.4939966   -109.38677    1026.5643     10.74124 
    7750    291.42488    9.3797358   -109.22155    979.27888    10.759801 
    7760    289.07297    9.3040378   -109.09415    929.69099    10.779061 
    7770    288.34186    9.2805065   -109.01756    879.28949    10.798988 
    7780     289.4253    9.3153778   -108.99762    820.20529    10.819556 
    7790    292.24344    9.4060819   -109.03156    743.22974    10.840748 
    7800    296.52201    9.5437911   -109.11068    648.87331    10.862567 
    7810    301.91458    9.7173552    -109.2242    545.76854    10.885031 
    7820    308.00756    9.9134623    -109.3595    441.40573    10.908162 
    7830    314.28697     10.11557   -109.50098    347.83932    10.931974 
    7840    320.13801     10.30389   -109.62996    279.35331    10.956453 
    7850     324.8557    10.455733   -109.72499      245.926    10.981526 
    7860    327.70814    10.547541   -109.76367    247.45955    11.007052 
    7870    328.11106    10.560509   -109.72809    281.58298    11.032809 
    7880     325.8476    10.487658   -109.61173    348.72034    11.058504 
    7890    321.22575      10.3389   -109.42437    448.08924    11.083782 
    7900    315.09622    10.141616   -109.19273    575.20812    11.108255 
    7910    308.64609    9.9340138   -108.95398    722.10222    11.131532 
    7920    302.99278    9.7520579   -108.74293    876.57152    11.153252 
    7930    298.89185    9.6200661   -108.58281    1024.5805    11.173102 
    7940    296.75755     9.551372   -108.48613    1156.1306     11.19083 
    7950    296.74065     9.550828   -108.45722    1261.6407    11.206259 
    7960    298.74575    9.6153638   -108.49279    1336.8369     11.21929 
    7970    302.42446     9.733766   -108.58177    1383.9951    11.229918 
    7980    307.18171    9.8868817   -108.70545    1407.7257    11.238233 
    7990    312.27825    10.050918   -108.84076    1411.6623    11.244413 
    8000    316.98441    10.202389   -108.96511     1404.106      11.2487 
    8010    320.69095    10.321687    -109.0598    1395.3239    11.251387 
    8020    322.94253    10.394156   -109.11096    1396.5146    11.252792 
    8030    323.44415    10.410301   -109.10965    1413.7685    11.253243 
    8040     322.1148    10.367515   -109.05346    1438.3942    11.253059 
    8050     319.1627    10.272499   -108.94888    1456.3184    11.252548 
    8060     315.1302     10.14271   -108.81288    1462.3302    11.252008 
    8070    310.78142    10.002741   -108.66931     1457.767    11.251719 
    8080    306.87446    9.8769925   -108.54181    1444.8007    11.251952 
    8090    303.95072    9.7828898   -108.44712    1426.8937    11.252964 
    8100    302.22368    9.7273038   -108.39161    1405.5058    11.255003 
    8110    301.62669    9.7080892   -108.37286     1372.881    11.258291 
    8120    301.97562    9.7193198   -108.38482    1320.0121    11.263015 
    8130    303.09241    9.7552645   -108.42184    1245.8901    11.269316 
    8140     304.8407    9.8115344   -108.47969    1151.6021    11.277284 
    8150    307.08531     9.883779   -108.55434    1037.7225    11.286965 
    8160    309.60438    9.9648573   -108.63902    909.00256    11.298352 
    8170    312.10756    10.045424   -108.72482    778.06483    11.311388 
    8180    314.39419    10.119021   -108.80572    661.86433     11.32597 
    8190    316.40718    10.183811    -108.8803    579.33935    11.341956 
    8200    318.12054    10.238957   -108.94808    539.73014    11.359171 
    8210    319.45418    10.281881   -109.00682    541.69557    11.377417 
    8220    320.31115    10.309463    -109.0536    579.82791    11.396482 
    8230    320.59193      10.3185   -109.08537    641.11325    11.416147 
    8240    320.12595    10.303502   -109.09663    708.05357    11.436183 
    8250    318.67843    10.256913   -109.07967    764.88023     11.45635 
    8260    316.10175     10.17398   -109.02935    803.48272    11.476391 
    8270    312.47324    10.057194   -108.94755    815.66584    11.496028 
    8280    308.10835    9.9167064   -108.84366    795.52001    11.514975 
    8290    303.49446    9.7682047   -108.73255    739.96806    11.532946 
    8300    299.18792    9.6295953   -108.63135    649.60352    11.549669 
    8310    295.67204    9.5164341     -108.555    533.36967    11.564899 
    8320    293.25948    9.4387839   -108.51311    402.39506    11.578435 
    8330    292.06992     9.400497   -108.50934     270.0498    11.590117 
    8340    291.95153    9.3966867   -108.53874    155.40372    11.599844 
    8350    292.56165    9.4163239   -108.59038    67.947249    11.607577 
    8360    293.58222    9.4491717   -108.65415    12.876789     11.61335 
    8370    294.81901    9.4889785   -108.72399   -3.5812196    11.617258 
    8380      296.164    9.5322681   -108.79663    22.088454    11.619453 
    8390    297.48313    9.5747256   -108.86797    83.853768    11.620134 
    8400    298.56696    9.6096095   -108.93145    172.88894    11.619537 
    8410    299.22303    9.6307255   -108.98102    282.14413    11.617927 
    8420    299.38306    9.6358762   -109.01454    400.07359    11.615576 
    8430    299.09788    9.6266975   -109.03361    516.92655     11.61276 
    8440    298.46607    9.6063621   -109.04135    626.53381    11.609736 
    8450    297.58178    9.5779004   -109.04065    721.32383    11.606746 
    8460    296.53313    9.5441488   -109.03418    795.28779    11.604004 
    8470    295.42324    9.5084261    -109.0251    848.78047    11.601702 
    8480    294.35816    9.4741457   -109.01664    887.23336    11.600006 
    8490    293.40955    9.4436141   -109.01097    913.76706    11.599065 
    8500    292.58656    9.4171254   -109.00824    931.61927     11.59901 
    8510    291.84529    9.3932673   -109.00693    946.25022    11.599956 
    8520    291.16456    9.3713573   -109.00624    961.08235    11.601992 
    8530    290.60637    9.3533916   -109.00807    971.45722    11.605173 
    8540    290.28027    9.3428957    -109.0159    969.56367    11.609532 
    8550    290.26431    9.3423822    -109.0322    951.09127    11.615083 
    8560    290.53472    9.3510854   -109.05622    918.19825    11.621833 
    8570    290.94623    9.3643302   -109.08333    880.25751    11.629773 
    8580    291.28636    9.3752777   -109.10676    846.35097    11.638869 
    8590    291.39613    9.3788106   -109.12142    817.43609    11.649058 
    8600    291.33819    9.3769456   -109.12934    788.00344    11.660248 
    8610    291.44444    9.3803656   -109.14119    748.75451    11.672327 
    8620    292.18633    9.4042438   -109.17218    690.59933    11.685178 
    8630    293.99356     9.462411   -109.23629     607.7807    11.698694 
    8640    297.09342    9.5621824   -109.34113    502.65231     11.71279 
    8650    301.37208    9.6998944   -109.48353    385.00323    11.727413 
    8660    306.26968    9.8575275   -109.64617     267.0294    11.742537 
    8670    310.83516    10.004471   -109.79925     163.3487    11.758166 
    8680    313.99044    10.106026    -109.9088    89.493544    11.774311 
    8690    314.88148    10.134705   -109.94786    55.869348    11.790979 
    8700     313.1186    10.077965   -109.90396    63.302615    11.808149 
    8710    308.82308    9.9397107   -109.78056    105.36102    11.825764 
    8720    302.56367    9.7382466   -109.59512    171.85276    11.843725 
    8730     295.2479    9.5027829   -109.37572    253.69554    11.861904 
    8740    287.91774    9.2668559   -109.15474    345.40086    11.880163 
    8750     281.5297    9.0612519    -108.9619    442.83129    11.898371 
    8760    276.80697    8.9092471   -108.81967    540.99374    11.916418 
    8770     274.1622    8.8241231   -108.74081    636.00805    11.934236 
    8780    273.68073    8.8086268   -108.72778    725.29729      11.9518 
    8790    275.16531    8.8564089   -108.77419    805.62493    11.969136 
    8800    278.20263    8.9541676   -108.86689     874.4855    11.986317 
    8810    282.20677     9.083044   -108.98739    934.90284    12.003455 
    8820    286.51205    9.2216128   -109.11473    994.04499    12.020692 
    8830    290.49093    9.3496759    -109.2293    1059.8803    12.038189 
    8840     293.6297    9.4506998   -109.31515    1131.1575    12.056109 
    8850    295.56555    9.5130066   -109.36112    1201.0147    12.074598 
    8860    296.11325    9.5306346    -109.3616    1266.4037    12.093775 
    8870     295.2981    9.5043986   -109.31759    1325.5886    12.113722 
    8880    293.36637    9.4422244   -109.23694    1374.8868    12.134494 
    8890    290.81777    9.3601956   -109.13553    1412.1308    12.156127 
    8900     288.3642    9.2812257   -109.03591     1440.806    12.178643 
    8910    286.76286    9.2296852   -108.96207    1463.0003     12.20206 
    8920    286.57006    9.2234798   -108.93163    1478.0893    12.226393 
    8930    287.93399    9.2673788    -108.9492    1482.4113     12.25165 
    8940     290.5981    9.3531254   -109.00657    1471.4448    12.277824 
    8950    294.06838    9.4648191   -109.08811    1448.2685    12.304888 
    8960    297.77056    9.5839765    -109.1758     1416.668    12.332783 
    8970    301.22561    9.6951801   -109.25478    1377.6462    12.361429 
    8980    304.11745    9.7882563   -109.31547    1327.4436    12.390724 
    8990    306.17716    9.8545494   -109.34978    1256.4729    12.420539 
    9000    307.14204     9.885605   -109.34968    1166.2801    12.450721 
    9010    306.82224     9.875312   -109.30935    1068.5792    12.481084 
    9020    305.10578    9.8200663   -109.22526      978.048    12.511412 
    9030    302.08967    9.7229904   -109.10036     909.4116    12.541461 
    9040    298.21348    9.5982322   -108.94841     869.8647    12.570972 
    9050    294.21798    9.4696342   -108.79269    856.72423    12.599701 
    9060    290.94047    9.3641448   -108.65952    859.32778    12.627441 
    9070    289.04932    9.3032766   -108.56983    863.06941    12.654053 
    9080    288.86084    9.2972104   -108.53337    857.82083    12.679485 
    9090    290.30573    9.3437153   -108.54771    845.04789    12.703778 
    9100    293.01038    9.4307663   -108.60086    833.80299    12.727046 
    9110    296.43719     9.541061    -108.6758    835.80349     12.74945 
    9120    300.06837    9.6579335   -108.75632    862.84448    12.771162 
    9130    303.52406    9.7691574   -108.83076     917.8749    12.792352 
    9140    306.57752    9.8674353   -108.89243    995.80458    12.813173 
    9150    309.12119    9.9493055   -108.93843    1089.4963    12.833767 
    9160    311.10735    10.013231   -108.96774    1191.2367    12.854252 
    9170     312.4467    10.056339   -108.97789    1297.3839    12.874723 
    9180    312.97372    10.073302   -108.96386    1405.8027    12.895249 
    9190    312.52344    10.058809   -108.92053    1510.4927    12.915864 
    9200    311.06204    10.011773   -108.84681    1603.8549    12.936567 
    9210    308.76912    9.9379738   -108.74831    1678.7797    12.957323 
    9220     306.0062     9.849047   -108.63631    1727.9264    12.978065 
    9230    303.29217    9.7616939   -108.52706    1744.4499    12.998715 
    9240    301.23586    9.6955101    -108.4397    1729.8087    13.019192 
    9250    300.37329    9.6677476   -108.39107    1689.2917    13.039438 
    9260      301.034    9.6890129   -108.39156    1629.4503    13.059441 
    9270    303.21174    9.7591052   -108.44096    1557.4257    13.079271 
    9280    306.54222    9.8662993   -108.52781    1473.4167    13.099094 
    9290    310.44751    9.9919939   -108.63399    1373.3616    13.119163 
    9300    314.32897    10.116922    -108.7409    1252.7946    13.139783 
    9310    317.69532    10.225271   -108.83343    1114.6279    13.161255 
    9320    320.20555    10.306064   -108.90126    976.43268    13.183822 
    9330    321.66646    10.353085   -108.93869     856.8145    13.207629 
    9340    321.97747    10.363095   -108.94281    763.51708    13.232712 
    9350    321.04624    10.333123   -108.91072    697.29006    13.258999 
    9360    318.82543    10.261644   -108.84072    659.99167    13.286321 
    9370    315.41891    10.152002   -108.73573    658.18747    13.314428 
    9380    311.04617    10.011262   -108.60217    701.62066    13.343004 
    9390    306.02209    9.8495584   -108.44935    791.04055     13.37168 
    9400    300.80742    9.6817203   -108.29123    916.95104    13.400057 
    9410    296.00807    9.5272496   -108.14646    1065.1625    13.427738 
    9420    292.25346    9.4064043   -108.03457    1223.5233    13.454357 
    9430    290.01143    9.3342428   -107.97009    1386.9222    13.479601 
    9440    289.45354    9.3162869   -107.95826     1552.205    13.503225 
    9450    290.39834    9.3466959   -107.99319    1713.9445    13.525061 
    9460    292.36055    9.4098513   -108.05941    1867.3437    13.545011 
    9470     294.6854    9.4846784   -108.13613    2014.4199    13.563036 
    9480    296.65809    9.5481709   -108.20068    2162.1645    13.579143 
    9490    297.64148     9.579822   -108.23284    2308.4092    13.593347 
    9500    297.23941    9.5668812   -108.22001    2443.3599    13.605667 
    9510     295.4125    9.5080806   -108.16085    2556.1037    13.616126 
    9520    292.47256    9.4134564   -108.06513    2637.3047    13.624767 
    9530    289.00247    9.3017689   -107.95118    2681.2962    13.631676 
    9540    285.75974    9.1973991   -107.84287    2684.1153    13.636994 
    9550    283.53597    9.1258253   -107.76523    2641.1043    13.640941 
    9560     282.9608    9.1073129   -107.73822    2552.2351    13.643812 
    9570    284.32283     9.151151   -107.77097    2422.6411    13.645972 
    9580    287.50566    9.2535928   -107.85986    2266.1447    13.647828 
    9590    292.00687    9.3984676   -107.98907     2097.715      13.6498 
    9600    297.02393    9.5599456   -108.13336    1926.6924    13.652272 
    9610    301.62951    9.7081798   -108.26362      1759.53    13.655565 
    9620    304.98661    9.8162308    -108.3537     1599.523    13.659909 
    9630    306.48661    9.8645093   -108.38463     1447.853    13.665441 
    9640    305.81501    9.8428936   -108.34667    1310.3452      13.6722 
    9650    303.05969    9.7542113   -108.24263    1191.0951    13.680141 
    9660    298.76203    9.6158877   -108.08959    1091.5852    13.689146 
    9670    293.83899    9.4574361   -107.91644    1009.6531    13.699053 
    9680     289.3902    9.3142481   -107.75782    935.05767    13.709683 
    9690    286.42253    9.2187316   -107.64546    858.03862    13.720862 
    9700    285.61941    9.1928823   -107.60082    775.66271    13.732443 
    9710    287.25323    9.2454682    -107.6324      687.313    13.744329 
    9720    291.14793    9.3708221   -107.73461    589.89782     13.75647 
    9730    296.70963    9.5498298   -107.88871    482.67757    13.768857 
    9740    303.07926    9.7548413   -108.06777    370.19697     13.78149 
    9750    309.35011    9.9566735   -108.24359     258.1035    13.794348 
    9760    314.72138    10.129552   -108.39151    144.99522    13.807374 
    9770    318.60151    10.254437   -108.49352    26.858584    13.820475 
    9780    320.73912    10.323237   -108.54237   -86.310519    13.833551 
    9790    321.20646    10.338279   -108.54092   -175.96374    13.846496 
    9800    320.27135    10.308182   -108.49797   -230.66332    13.859212 
    9810    318.32778    10.245627   -108.42606   -249.90804    13.871612 
    9820    315.80274    10.164356   -108.33862   -236.83129    13.883632 
    9830    313.13594    10.078523   -108.24932   -204.34871    13.895228 
    9840    310.82148    10.004031   -108.17358   -173.89616    13.906381 
    9850    309.37607     9.957509   -108.12765   -162.33152    13.917097 
    9860    309.17838     9.951146   -108.12345   -174.27077    13.927414 
    9870    310.25134    9.9856803    -108.1617   -204.55207      13.9374 
    9880    312.20122    10.048438   -108.22993    -244.7944    13.947142 
    9890    314.35117    10.117637    -108.3067   -283.31379    13.956731 
    9900    316.01006    10.171029   -108.37012   -311.17188     13.96625 
    9910     316.7562    10.195044   -108.40691   -323.51818    13.975758 
    9920    316.53306    10.187862   -108.41535   -320.06528    13.985279 
    9930    315.55355    10.156336   -108.40221   -306.10382    13.994802 
    9940    314.18444     10.11227    -108.3791    -282.9813    14.004292 
    9950    312.84659     10.06921   -108.35929   -246.93727    14.013695 
    9960    311.85938    10.037436   -108.35286    -200.4409    14.022953 
    9970    311.29805    10.019369   -108.36208   -154.27093    14.032004 
    9980     311.0019    10.009838   -108.38169   -113.40791    14.040781 
    9990    310.67591    9.9993454   -108.40216   -80.390761    14.049206 
   10000    310.01437    9.9780532   -108.41356   -58.869452    14.057179 
   10010    308.84811     9.940516   -108.41028   -53.600725     14.06458 
   10020     307.2078    9.8877213   -108.39303   -70.394708    14.071273 
   10030    305.29224    9.8260678    -108.3679   -115.51787    14.077117 
   10040    303.42656    9.7660192     -108.345   -188.19857    14.081976 
   10050    302.01884    9.7207106    -108.3372   -283.48837    14.085746 
   10060    301.43662    9.7019716   -108.35618   -400.54808    14.088363 
   10070    301.88312    9.7163424   -108.40851   -537.43258    14.089814 
   10080    303.36522    9.7640449   -108.49461   -690.05627    14.090138 
   10090       305.72    9.8398355   -108.60961   -849.33731    14.089434 
   10100    308.60201    9.9325951   -108.74287   -1004.2754    14.087875 
   10110    311.45712    10.024489   -108.87707    -1148.162    14.085708 
   10120     313.5933    10.093244   -108.99038   -1275.5207     14.08324 
   10130    314.35896    10.117887   -109.06205   -1384.7186    14.080797 
   10140    313.32089    10.084476     -109.078   -1478.6773    14.078694 
   10150    310.39247    9.9902226   -109.03497   -1560.4251      14.0772 
   10160    305.84883     9.843982   -108.94098   -1627.7771    14.076534 
   10170    300.25898    9.6640683   -108.81334   -1677.7269    14.076858 
   10180    294.35909    9.4741757   -108.67473    -1714.247    14.078291 
   10190    288.87934    9.2978057   -108.54773   -1747.8012    14.080917 
   10200    284.39095    9.1533434   -108.45006   -1790.5704    14.084792 
   10210      281.209      9.05093   -108.39144   -1849.2047    14.089944 
   10220    279.36583    8.9916061   -108.37269   -1920.4902    14.096378 
   10230     278.6392    8.9682188   -108.38662   -1991.7293    14.104078 
   10240    278.67345    8.9693213   -108.42181   -2044.9109     14.11301 
[...]
  197500    278.98125    8.9792279   -109.60961    538.90487    334.05032 
  197510    278.48585    8.9632831   -109.60237    607.24543    334.15727 
  197520    278.35448    8.9590548   -109.60297    649.74788    334.26553 
  197530    278.80717    8.9736252   -109.61886     663.6235    334.37398 
  197540    279.94011    9.0100896    -109.6535     648.8741     334.4814 
  197550    281.69963    9.0667212   -109.70558    605.18045     334.5865 
  197560      283.911    9.1378958   -109.76989    540.99365    334.68788 
  197570    286.31691     9.215332    -109.8386    473.28695    334.78414 
  197580    288.63942    9.2900837   -109.90317    413.91673    334.87392 
  197590    290.69366     9.356201   -109.95804    367.85772    334.95597 
  197600    292.44825    9.4126738   -110.00254    339.43631    335.02925 
  197610    294.00815    9.4628804    -110.0403    330.26136    335.09296 
  197620    295.54855    9.5124594   -110.07718    343.81789    335.14663 
  197630     297.2134    9.5660439   -110.11801    388.48674    335.19011 
  197640    299.03073    9.6245361   -110.16389    469.97769    335.22347 
  197650     300.8517    9.6831455   -110.21025    587.40774    335.24691 
  197660     302.3471     9.731276   -110.24673    731.47711     335.2607 
  197670    303.15426    9.7572553   -110.26184    888.52805    335.26515 
  197680    303.06716    9.7544518   -110.24903    1042.5101    335.26062 
  197690     302.1314    9.7243335   -110.20972    1175.6784    335.24747 
  197700    300.70714    9.6784927   -110.15532    1276.5321    335.22618 
  197710     299.3735    9.6355683   -110.10422    1337.6507    335.19734 
  197720    298.68335    9.6133553   -110.07396    1354.1365    335.16175 
  197730    298.94348     9.621728   -110.07426    1326.4462    335.12042 
  197740     300.0884    9.6585781   -110.10302    1259.0164    335.07456 
  197750    301.73322    9.7115178   -110.14797    1163.4242    335.02539 
  197760    303.40527     9.765334   -110.19413    1056.6726    334.97411 
  197770    304.75837    9.8088848    -110.2306    957.12822    334.92179 
  197780    305.66542    9.8380788   -110.25351    876.48184    334.86937 
  197790    306.19942     9.855266   -110.26534    814.03762    334.81769 
  197800    306.51723    9.8654949   -110.27124    765.24868    334.76748 
  197810    306.74957     9.872973   -110.27546    731.26307    334.71938 
  197820    306.97088    9.8800961   -110.28042    715.21164    334.67384 
  197830    307.20518     9.887637   -110.28694    717.03914    334.63113 
  197840     307.4565     9.895726   -110.29519    733.69341    334.59131 
  197850    307.74864    9.9051288     -110.306    758.05489    334.55427 
  197860    308.13006    9.9174052   -110.32099    781.44308    334.51977 
  197870    308.63655     9.933707   -110.34141    798.18699     334.4875 
  197880    309.25754    9.9536938   -110.36704    806.30792    334.45701 
  197890    309.94306     9.975758   -110.39644    805.24941     334.4278 
  197900    310.58528    9.9964283   -110.42631    798.84241    334.39933 
  197910    311.01404    10.010228   -110.45135    785.44625    334.37111 
  197920    311.08988    10.012669   -110.46723     759.8465    334.34268 
  197930    310.74689     10.00163   -110.47192    719.92638    334.31357 
  197940    310.00034    9.9776014   -110.46596    668.85581    334.28333 
  197950    308.90306    9.9422847   -110.45102     613.6995    334.25159 
  197960    307.50214    9.8971949   -110.42853    559.97911    334.21808 
  197970     305.8723    9.8447374   -110.40079    511.93088    334.18264 
  197980     304.1538    9.7894261   -110.37215    477.13381    334.14516 
  197990    302.56556    9.7383073   -110.34951    463.33759    334.10572 
  198000    301.38189      9.70021    -110.3416    471.89807    334.06454 
  198010    300.88058    9.6840751   -110.35737    497.02686    334.02207 
  198020    301.24435    9.6957831   -110.40285    535.81488      333.979 
  198030    302.45224    9.7346602   -110.47769    586.56412    333.93629 
  198040    304.24215    9.7922697   -110.57391    645.18194    333.89509 
  198050    306.13034    9.8530425   -110.67649    706.78601    333.85672 
  198060    307.47937    9.8964622   -110.76542    763.20249    333.82247 
  198070    307.63313    9.9014111   -110.81989    807.11971    333.79345 
  198080    306.13896    9.8533201   -110.82527    847.75857    333.77041 
  198090    302.94697    9.7505833   -110.77952     900.9813     333.7537 
  198100    298.36177     9.603005   -110.69159    975.49849    333.74326 
  198110    292.86312    9.4260267   -110.57582    1067.9016    333.73866 
  198120    286.96601    9.2362239   -110.44754     1163.118    333.73915 
  198130    281.17796    9.0499307   -110.32186    1242.4503    333.74375 
  198140    275.99495    8.8831116   -110.21365    1294.5959    333.75136 
  198150    271.88546    8.7508444   -110.13714    1311.0975    333.76081 
  198160     269.2415    8.6657465   -110.10435    1285.5822    333.77094 
  198170    268.25701    8.6340602   -110.12128    1217.4979    333.78063 
  198180     268.7884    8.6511632   -110.18326    1110.6846    333.78891 
  198190    270.34666    8.7013171   -110.27467    969.75819    333.79497 
  198200     272.2454    8.7624295   -110.37359    805.57917    333.79823 
  198210    273.81947    8.8130921   -110.45876    636.39312    333.79831 
  198220    274.61306    8.8386345   -110.51558    479.34101    333.79512 
  198230    274.45542    8.8335608   -110.53851    346.48606    333.78879 
  198240    273.41343    8.8000236   -110.52959    243.85313    333.77971 
  198250    271.70686    8.7450963   -110.49567     169.2824    333.76847 
  198260    269.63619      8.67845   -110.44617    117.17197    333.75572 
  198270    267.55635    8.6115089   -110.39222    84.017585    333.74215 
  198280    265.87018     8.557238    -110.3465    69.822198    333.72844 
  198290    264.95935    8.5279222   -110.32104    76.368255    333.71522 
  198300    265.05349    8.5309523     -110.323    100.56041    333.70311 
  198310    266.13212    8.5656688   -110.35153    133.94661    333.69268 
  198320     267.9181     8.623152   -110.39756     171.6821    333.68445 
  198330    270.01264    8.6905663    -110.4481     213.5265    333.67884 
  198340    272.05251    8.7562211   -110.49131    259.17732    333.67616 
  198350    273.77758     8.811744   -110.51863    307.56988    333.67654 
  198360    275.05387    8.8528222   -110.52552    353.84759    333.67994 
  198370    275.86749    8.8790093   -110.51122    394.30465    333.68618 
  198380    276.29807    8.8928677   -110.47793    428.69838     333.6949 
  198390    276.50053    8.8993841   -110.43024    450.44416    333.70562 
  198400    276.70138    8.9058487   -110.37505    449.74661     333.7177 
  198410    277.17452    8.9210771   -110.32089    421.75208    333.73039 
  198420    278.17731    8.9533525   -110.27592     365.2099    333.74291 
  198430    279.91183    9.0091794   -110.24688    286.53809    333.75447 
  198440    282.47169    9.0915704   -110.23747    201.51786    333.76428 
  198450    285.72058    9.1961387   -110.24458    132.51261    333.77152 
  198460    289.28283    9.3107924   -110.25805    91.651637    333.77542 
  198470    292.70672    9.4209929   -110.26584    77.969669    333.77527 
  198480    295.64308    9.5155019   -110.25949    83.241351    333.77043 
  198490    297.93962     9.589418   -110.23677    100.08926    333.76046 
  198500    299.61932    9.6434803    -110.2006    125.73197    333.74506 
  198510    300.79815    9.6814218   -110.15618    159.39654    333.72415 
  198520    301.62035    9.7078851    -110.1089    202.37955    333.69786 
  198530    302.26905    9.7287638   -110.06474     254.2949    333.66655 
  198540    302.95521    9.7508485   -110.03007     317.7551    333.63074 
  198550    303.84363    9.7794431    -110.0095    394.80845    333.59111 
  198560    305.02901    9.8175956   -110.00523    480.91017    333.54849 
  198570    306.55217    9.8666195   -110.01777    568.61557    333.50385 
  198580     308.3953    9.9259422   -110.04587    655.11943    333.45832 
  198590    310.43993    9.9917502   -110.08514    742.00663     333.4132 
  198600    312.44436    10.056264   -110.12741    827.47714    333.36994 
  198610    314.12479     10.11035   -110.16326    904.03215    333.33004 
  198620     315.2398    10.146238   -110.18469     968.2585    333.29506 
  198630    315.59346     10.15762   -110.18518    1019.6351    333.26651 
  198640    315.11246    10.142139   -110.16209    1054.3596    333.24585 
  198650     313.9081    10.103376   -110.11865    1064.0945    333.23434 
  198660    312.24718    10.049918   -110.06304    1041.3404    333.23301 
  198670    310.49001    9.9933619   -110.00645    985.02475    333.24249 
  198680    308.99056    9.9451011   -109.95987    902.85842    333.26293 
  198690    307.94279    9.9113775   -109.92924     805.0246    333.29401 
  198700    307.32272    9.8914204   -109.91359    701.58405      333.335 
  198710    306.92251    9.8785393   -109.90611    603.85648    333.38482 
  198720    306.41879    9.8623265   -109.89632    520.66424    333.44216 
  198730    305.48262    9.8321954   -109.87355    451.11492    333.50551 
  198740    303.91186     9.781639   -109.83113    390.37657    333.57328 
  198750    301.75244    9.7121366   -109.77027    330.93983    333.64386 
  198760    299.33614    9.6343658    -109.7013    266.64644    333.71565 
  198770    297.16224    9.5643974   -109.63996    192.74655    333.78708 
  198780    295.76188    9.5193257   -109.60302    106.64159    333.85668 
  198790    295.58934    9.5137723   -109.60494    13.498428    333.92324 
  198800    296.90157    9.5560074   -109.65403   -77.619981    333.98589 
  198810     299.6499    9.6444645   -109.74896   -164.80692    334.04418 
  198820    303.44729    9.7666864   -109.87775     -253.622    334.09811 
  198830    307.63297    9.9014059   -110.01977   -342.47478    334.14799 
  198840    311.40729    10.022885   -110.15001   -416.17322    334.19433 
  198850    314.02279    10.107067   -110.24507   -460.23338    334.23769 
  198860    314.97036    10.137565   -110.28902   -466.92796    334.27867 
  198870    314.11712    10.110103   -110.27775   -435.28175    334.31778 
  198880    311.69231    10.032059   -110.21845   -373.37087    334.35547 
  198890    308.15139    9.9180917   -110.12533    -294.1032    334.39201 
  198900    304.01446    9.7849412   -110.01451   -203.70464    334.42752 
  198910    299.72416    9.6468548   -109.89953   -100.04182    334.46191 
  198920    295.60625    9.5143166   -109.79019    15.436479      334.495 
  198930    291.87544    9.3942375   -109.69279    136.40145    334.52655 
  198940    288.64069    9.2901247   -109.61028    260.84237    334.55639 
  198950    285.93817     9.203142   -109.54339    385.84622    334.58445 
  198960    283.80952    9.1346298   -109.49307    505.22922    334.61079 
  198970    282.35491     9.087812   -109.46228    613.78542    334.63554 
  198980    281.72013     9.067381   -109.45551    707.55436    334.65887 
  198990    282.04589    9.0778659   -109.47721    783.96162    334.68094 
  199000    283.39719    9.1213585   -109.52951    837.50459    334.70181 
  199010    285.73951    9.1967479   -109.61146    857.17434    334.72142 
  199020    288.96836    9.3006708   -109.71999    833.96654     334.7395 
  199030    292.89784    9.4271442   -109.84953    765.08038    334.75569 
  199040    297.21473    9.5660867   -109.99056     651.9646    334.76962 
  199050    301.46866    9.7030029   -110.12921    504.37369    334.78098 
  199060    305.13249    9.8209261   -110.24919    337.08705    334.78966 
  199070    307.73544    9.9047041   -110.33596    166.85045    334.79578 
  199080    308.94428    9.9436113   -110.37928    9.2486054     334.7997 
  199090    308.59174    9.9322646   -110.37403   -130.05197    334.80201 
  199100    306.71001    9.8716998   -110.32123   -256.47857    334.80338 
  199110    303.50097    9.7684142   -110.22709   -373.16413    334.80458 
  199120    299.27286    9.6323293   -110.10104   -477.18438    334.80632 
  199130     294.3925    9.4752512   -109.95419   -569.39399    334.80923 
  199140    289.25549    9.3099125   -109.79851    -651.5785     334.8138 
  199150    284.27782    9.1497022   -109.64658    -725.1873     334.8203 
  199160    279.89008    9.0084794   -109.51151   -792.61169    334.82875 
  199170     276.4965    8.8992544   -109.40562   -856.49395    334.83888 
  199180    274.40453    8.8319229   -109.33823   -919.10541    334.85029 
  199190    273.77111    8.8115356   -109.31392   -981.09443    334.86257 
  199200    274.56026    8.8369351   -109.33123   -1039.0327    334.87542 
  199210    276.51717    8.8999196   -109.38173   -1087.5015    334.88872 
  199220    279.22811    8.9871733   -109.45202   -1121.1006    334.90249 
  199230    282.26893    9.0850446   -109.52847   -1136.1609    334.91694 
  199240    285.36163    9.1845855   -109.60223   -1129.0067    334.93234 
  199250    288.46366    9.2844269   -109.67209   -1095.2787    334.94896 
  199260    291.68717     9.388178   -109.74186   -1038.1598    334.96696 
  199270    295.07814    9.4973189   -109.81327   -968.05469    334.98628 
  199280    298.52099    9.6081298   -109.88294   -892.53627    335.00659 
  199290      301.752    9.7121225   -109.94284   -820.60967    335.02736 
  199300    304.37755    9.7966278   -109.98083    -755.5978    335.04787 
  199310    305.96968    9.8478717   -109.98371   -698.43223    335.06727 
  199320    306.18509    9.8548048   -109.94095   -644.66509    335.08465 
  199330    304.87218    9.8125477   -109.84808   -586.36007    335.09901 
  199340    302.19205    9.7262856   -109.71044     -521.557     335.1093 
  199350    298.67005    9.6129272   -109.54487   -456.42291    335.11453 
  199360    295.09291    9.4977944    -109.3764   -397.27467    335.11387 
  199370    292.26746    9.4068552   -109.23058   -347.48133    335.10666 
  199380    290.77189     9.358719   -109.12561   -310.11826    335.09253 
  199390    290.82373    9.3603874   -109.06822   -287.88213     335.0714 
  199400    292.30896    9.4081907   -109.05471   -279.36648    335.04347 
  199410    294.92866    9.4925079   -109.07572   -278.45921    335.00928 
  199420    298.37618     9.603469   -109.12192    -276.9389    334.96958 
  199430     302.4607    9.7349323   -109.18794   -266.24582    334.92527 
  199440    307.13848    9.8854904   -109.27332   -241.12223    334.87725 
  199450    312.45203    10.056511   -109.38045    -200.1818    334.82637 
  199460    318.38617    10.247506   -109.50996   -146.90282     334.7733 
  199470    324.73224    10.451759   -109.65637   -84.102332    334.71858 
  199480    331.06263    10.655508   -109.80719   -9.2670718    334.66259 
  199490    336.75733    10.838796    -109.9438     80.80923    334.60556 
  199500    341.13386    10.979658   -110.04541    184.37817    334.54757 
  199510     343.6467    11.060536   -110.09538    304.78672    334.48858 
  199520    344.06662    11.074051   -110.08675    444.70975    334.42842 
  199530    342.51724    11.024183   -110.02344    594.35546    334.36686 
  199540    339.40808    10.924113   -109.91805    737.44752    334.30363 
  199550     335.3152     10.79238   -109.78822    858.89402    334.23837 
  199560    330.85229    10.648738   -109.65263    955.34875    334.17064 
  199570    326.53677    10.509839   -109.52687    1026.6058    334.09995 
  199580    322.66844    10.385334   -109.41963    1066.9373    334.02577 
  199590    319.29163    10.276649   -109.33154    1077.5246    333.94762 
  199600    316.28143    10.179763   -109.25791    1067.7171    333.86518 
  199610    313.49511    10.090083   -109.19357    1046.9077    333.77837 
  199620    310.84371    10.004746   -109.13516     1025.129    333.68736 
  199630    308.29382    9.9226758   -109.08113    1007.5495    333.59269 
  199640    305.90801    9.8458867   -109.03305    994.34794    333.49519 
  199650    303.81249    9.7784408   -108.99461    986.22971    333.39599 
  199660    302.11069     9.723667   -108.96883    981.99797    333.29636 
  199670    300.83194    9.6825095   -108.95642    972.11253    333.19768 
  199680    299.91978     9.653151   -108.95541    940.17425    333.10128 
  199690    299.24037    9.6312835   -108.96139     876.8874    333.00838 
  199700    298.59117    9.6103885   -108.96776    790.42255    332.91994 
  199710    297.72308    9.5824484   -108.96639    697.88334     332.8367 
  199720    296.39334    9.5396497   -108.94934    612.30859    332.75915 
  199730    294.45862    9.4773791   -108.91174     540.3245    332.68766 
  199740    291.97327    9.3973863   -108.85504    485.21212    332.62248 
  199750    289.20379    9.3082484   -108.78744    443.40037    332.56376 
  199760     286.5545    9.2229791   -108.72161    403.65543    332.51155 
  199770    284.46893    9.1558534   -108.67151    353.32884     332.4659 
  199780    283.33403    9.1193257   -108.64942    288.88665    332.42688 
  199790    283.40372    9.1215686   -108.66345    217.59312    332.39453 
  199800    284.76476    9.1653749    -108.7165    152.70483    332.36887 
  199810     287.3507    9.2486054   -108.80668     112.6229    332.34982 
  199820    290.93515    9.3639736   -108.92711    113.76775    332.33718 
  199830    295.11305    9.4984425   -109.06531    158.28454    332.33057 
  199840     299.3261    9.6340429   -109.20392    232.25755    332.32942 
  199850    302.97699    9.7515496   -109.32437     320.4051    332.33293 
  199860    305.58787    9.8355829   -109.41188    418.13268    332.34003 
  199870    306.87972    9.8771621    -109.4579    521.56669    332.34944 
  199880    306.80952    9.8749024   -109.46128    626.70544    332.35977 
  199890    305.56275    9.8347742     -109.428    732.01669    332.36951 
  199900    303.49024    9.7680691   -109.36918    833.47999    332.37709 
  199910    301.00907    9.6882105   -109.29795    924.74956    332.38085 
  199920     298.5169    9.6079983   -109.22676     1002.714    332.37914 
  199930    296.33006    9.5376131   -109.16547    1066.1513    332.37042 
  199940    294.60133    9.4819725   -109.11871     1115.685    332.35337 
  199950    293.28656    9.4396555   -109.08485    1155.6153    332.32701 
  199960    292.19865    9.4046404   -109.05772    1195.9376     332.2907 
  199970    291.12935     9.370224   -109.03048     1248.144    332.24408 
  199980    289.93174    9.3316781   -108.99822    1316.9884    332.18713 
  199990    288.53582    9.2867492   -108.95851    1392.3557    332.12006 
  200000    286.97067    9.2363739   -108.91201     1457.282    332.04338 
Loop time of 35.864 on 10 procs for 200000 steps with 250 atoms

Performance: 240.910 ns/day, 0.100 hours/ns, 5576.616 timesteps/s
98.4% CPU use with 10 MPI tasks x no OpenMP threads

MPI task timing breakdown:
Section |  min time  |  avg time  |  max time  |%varavg| %total
---------------------------------------------------------------
Pair    | 21.671     | 23.074     | 23.767     |  12.4 | 64.34
Neigh   | 0.88373    | 0.96432    | 1.0036     |   4.1 |  2.69
Comm    | 8.3857     | 9.0624     | 10.612     |  21.4 | 25.27
Output  | 1.7678     | 1.8195     | 2.2256     |  10.0 |  5.07
Modify  | 0.76348    | 0.82893    | 0.89513    |   3.9 |  2.31
Other   |            | 0.1145     |            |       |  0.32

Nlocal:    25 ave 27 max 22 min
Histogram: 1 0 1 0 1 0 3 0 2 2
Nghost:    372.7 ave 380 max 366 min
Histogram: 2 0 1 0 2 2 0 1 0 2
Neighs:    0 ave 0 max 0 min
Histogram: 10 0 0 0 0 0 0 0 0 0
FullNghs:  846 ave 941 max 720 min
Histogram: 1 1 0 0 0 1 5 0 1 1

Total # of neighbors = 8460
Ave neighs/atom = 33.84
Neighbor list builds = 20000
Dangerous builds not checked




Total wall time: 0:00:35
