
# Define the lattice
variable	lattice_constant equal 3.90859
lattice		bcc ${lattice_constant}
lattice		bcc 3.90859
Lattice spacing in x,y,z = 3.90859 3.90859 3.90859

# Define region
# multiples of lattice spacing
region 		simbox block 0 5 0 5 0 5

# Create Atoms
create_box 	1 simbox
Created orthogonal box = (0 0 0) to (19.5429 19.5429 19.5429)
  1 by 1 by 1 MPI processor grid
create_atoms 	1 box
Created 250 atoms
  Time spent = 0.000413179 secs
mass		1 18.015

# Define Interatomic Potential
pair_style	sw
pair_coeff	* * mW.sw mW
Reading potential file mW.sw with DATE: 2019-02-27

neighbor 	2.0 bin
neigh_modify	delay 10 check no

# Initialize atom velocities
velocity	all create ${temperature} 97287
velocity	all create 300.0 97287

# Pressure computations
compute		total_press all pressure thermo_temp
compute		peratom all stress/atom NULL
compute		p all reduce sum c_peratom[1] c_peratom[2] c_peratom[3]
variable	press equal -(c_p[1]+c_p[2]+c_p[3])/(3*vol)

# Density computations
variable	total_mass equal mass(all)
variable	v equal vol
print 		${total_mass}
print 		4503.75
4503.75
print		$v
print		7463.97820682622
7463.97820682622

variable 	density equal v_total_mass/(v_v*18.015)
print 		${density}
print 		0.0334942028329291
0.0334942028329291

# Displacement computations
compute		disp all msd

# Run equilibration
thermo_style	custom step temp ke pe c_total_press c_disp[4]
thermo		10
dump		1 all atom 10 ${simname}.dump
dump		1 all atom 10 mW_bcc_3.90859.dump


fix 		4 all nvt temp 7000.0 300.0 $(100.0*dt)
fix 		4 all nvt temp 7000.0 300.0 0.10000000000000000555
timestep	0.0005
run		30000
Neighbor list info ...
  update every 1 steps, delay 10 steps, check no
  max neighbors/atom: 2000, page size: 100000
  master list distance cutoff = 6.3065
  ghost atom cutoff = 6.3065
  binsize = 3.15325, bins = 7 7 7
  1 neighbor lists, perpetual/occasional/extra = 1 0 0
  (1) pair sw, perpetual
      attributes: full, newton on
      pair build: full/bin/atomonly
      stencil: full/bin/3d
      bin: standard
Per MPI rank memory allocation (min/avg/max) = 4.73 | 4.73 | 4.73 Mbytes
Step Temp KinEng PotEng c_total_press c_disp[4] 
       0          300    9.6557328   -2311.1985   -1084352.2            0 
      10    303.54061    9.7696902   -2311.2892   -1079036.6 0.0010380491 
      20    316.44851    10.185141   -2311.6331   -1063654.4 0.0041960016 
      30    347.01016    11.168791   -2312.4903   -1040402.2 0.0095889697 
      40    419.61672     13.50569   -2314.6294   -1012530.5  0.017412131 
      50    580.79163    18.693229   -2319.5091   -981042.06  0.028224461 
      60    874.02378    28.131134   -2328.4638   -941275.16  0.043648483 
      70    1315.5955    42.343461   -2341.9569   -884302.25  0.066993342 
      80    1898.0786    61.091132   -2359.7243   -805572.41   0.10310737 
      90    2606.4512    83.890654   -2381.2824   -709452.15   0.15739175 
     100    3397.8777    109.36333    -2405.252   -602974.15   0.23508998 
     110    4144.8062     133.4038   -2427.5384   -494806.89   0.34085918 
     120    4798.8217     154.4538   -2446.6255   -394008.12   0.47721048 
     130     5387.715    173.40779   -2463.4442   -307216.85   0.64431208 
     140    5817.9479    187.25517   -2475.0259   -237340.81   0.84044612 
     150    6133.1534     197.4003   -2482.8444   -188426.23    1.0617145 
     160    6380.9797    205.37679   -2488.4696    -150042.5    1.3038092 
     170    6563.6932    211.25756   -2492.0076   -117077.06    1.5618778 
     180    6601.4151    212.47167   -2490.9145   -89406.012    1.8281062 
     190    6562.1092    211.20658   -2487.4157   -60652.446    2.0952152 
     200    6551.1878    210.85507   -2484.8901   -36058.129    2.3579015 
     210    6696.0277    215.51685   -2487.3976   -26022.167     2.612952 
     220    6847.4423    220.39024   -2490.1093   -17405.754    2.8611496 
     230     7049.661    226.89881    -2494.484   -9872.3291    3.1021144 
     240    6906.7988    222.30068   -2487.7987   -7632.9121    3.3358261 
     250    6715.2322    216.13496   -2479.6745   -6711.8194    3.5584246 
     260    6682.4798     215.0808   -2476.7279   -449.23088    3.7670126 
     270     6485.817    208.75105   -2468.5281    17559.815    3.9626674 
     280    6483.7516    208.68458   -2466.6277    29553.046    4.1479543 
     290    6803.2715    218.96857   -2475.0198    14589.901     4.328506 
     300    7040.7244    226.61118   -2480.7084   -10202.889    4.5095456 
     310    7096.4379    228.40436   -2480.5716   -28944.648    4.6903465 
     320    7047.7928    226.83868   -2477.1506   -34693.576    4.8712988 
     330    6991.9876    225.04255   -2473.5745   -34779.932    5.0535949 
     340    7285.6482    234.49424   -2481.3016    -36140.26    5.2311983 
     350    7331.4105    235.96714   -2481.0753    -19496.93    5.3976566 
     360     7068.969    227.52025   -2471.0379    2955.4553    5.5451358 
     370    7133.7948    229.60672    -2471.656     20477.11    5.6690427 
     380    7023.9431    226.07106   -2466.6616    31080.596    5.7805211 
     390    7434.2904    239.27841   -2478.4737    24017.215    5.8979387 
     400    8073.6298    259.85604   -2497.6627    12778.956    6.0355165 
     410    7865.7669    253.16581   -2489.7156    13279.287    6.1947314 
     420    7361.3351    236.93028    -2472.468    17571.649    6.3632759 
     430    7506.1387     241.5909   -2476.2584    10206.075    6.5253425 
     440    8088.5943    260.33769   -2494.2348    945.51998    6.6732795 
     450    7906.6598    254.48198   -2487.7349    254.81536    6.8104522 
     460    7829.7439    252.00638   -2484.8488    9606.0224    6.9375204 
     470    7784.0035    250.53419   -2483.1462     16798.43    7.0679853 
     480    7344.4965    236.38832   -2468.8857    20221.895    7.2187146 
     490    7506.0449    241.58788   -2474.0975    10562.183    7.3804739 
     500    7881.3846    253.66848   -2486.3231    4831.5908    7.5282676 
     510    7613.9694    245.06151   -2477.9937    16185.603     7.650508 
     520    7257.8097    233.59824   -2466.9059    24880.436    7.7560071 
     530    7468.7719    240.38822   -2474.2039    22028.404    7.8579281 
     540    7342.3588    236.31952   -2470.7011    22300.352    7.9647304 
     550    7413.5889    238.61211   -2473.6354    16353.166    8.0745214 
     560    7987.1822    257.07366   -2492.9297   -8723.1399    8.1873744 
     570    7836.6926    252.23003   -2489.1057   -24506.468     8.312118 
     580    7245.8645    233.21377   -2471.1857   -24468.197    8.4474211 
     590    7473.0101    240.52463   -2479.6947   -23363.217    8.5857853 
     600    7780.2177    250.41234   -2490.9295   -11577.705    8.7338201 
     610    7767.9903     250.0188   -2492.0538     5249.995    8.9046116 
     620    7577.2096    243.87837   -2487.5516     7891.284    9.0955272 
     630    7556.7091    243.21855   -2488.6225   -474.81146    9.2927238 
     640    7694.7804    247.66248   -2494.9381    2524.2318    9.4891483 
     650    7493.3898    241.18057   -2490.4234    8057.1158    9.6832909 
     660    7138.5077    229.75841   -2480.9405    10542.734    9.8707639 
     670    7329.8481    235.91685   -2489.0561    5802.6373    10.046263 
     680    7608.0414    244.87072   -2500.0775   -2724.1646    10.206691 
     690    7546.8544    242.90137   -2500.2755    -12697.33    10.347767 
     700    7201.8639    231.79758   -2491.3255   -16446.313    10.469875 
     710     7024.605    226.09236   -2487.6784   -11237.258    10.583236 
     720    7192.7864    231.50541   -2495.1934    7852.0028    10.702862 
     730    6820.5752     219.5255   -2485.1733    18324.032    10.828671 
     740    7042.3843     226.6646   -2494.2493    1784.1635    10.950172 
     750    7249.0096      233.315   -2502.8622   -4163.5959    11.065539 
     760    7079.0089     227.8434   -2499.3574    5169.1629      11.1663 
     770    6851.1034    220.50808   -2493.8655    11856.047    11.241085 
     780    7161.7592    230.50678   -2505.7525    2570.8321    11.288228 
     790    6983.2561    224.76152   -2501.8507   -3862.7832    11.336573 
     800    6932.2935    223.12125   -2501.9947   -8338.1022    11.412164 
     810    7147.5046    230.04798   -2510.7308   -12376.316      11.5228 
     820    7088.4093    228.14595   -2510.6286   -11068.232    11.664862 
     830     7113.124    228.94142   -2513.2369    -4480.104    11.829739 
     840    6964.0555    224.14353   -2510.2259    6968.0534      12.0048 
     850    6943.7729    223.49072   -2511.2948    8610.7894    12.172272 
     860    7182.0969    231.16136   -2520.7436   -2247.5576    12.323368 
     870    6962.3023     224.0871   -2515.4141   -13300.778    12.458538 
     880     6936.222    223.24769   -2516.2965   -26140.289    12.575634 
     890    6782.1405    218.28846   -2513.0087   -28073.847    12.679666 
     900    6530.9269    210.20295   -2506.4754   -22316.781    12.781228 
     910    6710.1186    215.97037   -2513.7381    -11540.78    12.886861 
     920    6718.7772    216.24906    -2515.501    -1151.169    12.982165 
     930    6211.9759    199.93726   -2500.5107    8302.6776    13.051161 
     940     6385.264    205.51468   -2507.2942    3118.9044    13.103235 
     950    6874.2695     221.2537   -2524.2782   -11788.796     13.16329 
     960    6343.1822    204.16024   -2508.3358   -15451.087    13.229056 
     970     6063.126    195.14641   -2500.3127   -20329.867    13.274396 
     980    6634.4844    213.53603   -2519.6845   -29742.253     13.30311 
     990    6593.3577    212.21233   -2519.2869   -24549.612    13.353853 
    1000    6386.9859     205.5701   -2513.5203   -18752.154    13.442253 
    1010    6224.3592    200.33583    -2509.085   -5872.1972    13.553855 
    1020    6044.0765    194.53329   -2503.9558    13046.976    13.665879 
    1030    6167.3493    198.50092   -2508.5085    26169.741     13.76284 
    1040    6347.9877    204.31491    -2514.832    13587.201    13.840575 
    1050    6192.1007    199.29757   -2510.2565   -5536.9359    13.895414 
    1060     5877.897    189.18468   -2500.4422   -19866.279    13.928798 
    1070    6454.9993    207.75916   -2519.2718   -30487.376    13.964982 
    1080    6794.9431    218.70052   -2530.4076   -22301.167    14.031223 
    1090    6642.0594    213.77984   -2525.6612   -4156.6976    14.134489 
    1100    6805.7972    219.04987   -2531.1174    8198.7618    14.271481 
    1110    7077.4996    227.79482   -2540.0788    10324.535    14.431311 
    1120     6941.843     223.4286   -2535.9499    5377.3266     14.59223 
    1130    6862.4912    220.87461   -2533.6788   -5540.5473    14.737933 
    1140    6694.0684    215.45379   -2528.5621   -13785.137    14.861854 
    1150    6249.9957    201.16096   -2514.5237   -4046.3936    14.956051 
    1160    6214.5289    200.01943   -2513.5741   -1574.5807    15.024226 
    1170    6538.0014    210.43065   -2524.1318   -15097.019    15.090365 
    1180    6521.3293    209.89404   -2523.6783   -13099.252    15.162892 
    1190    6547.4902    210.73605   -2524.5699   -6348.2883    15.225275 
    1200    6991.7819    225.03593   -2538.9343   -31.124729    15.268973 
    1210    6872.1623    221.18588   -2535.1669    19853.505    15.318923 
    1220    6155.1275    198.10756   -2512.1407    32069.803    15.405923 
    1230    6110.8385    196.68208   -2510.7386    27513.662    15.538261 
    1240    6288.5008    202.40028   -2516.3847    23873.491    15.706923 
    1250    6268.5205     201.7572   -2515.5804    21070.195    15.884333 
    1260    6300.0079    202.77065   -2516.3755    7983.5627     16.03452 
    1270    6344.1285     204.1907   -2517.5073   -5551.2874      16.1376 
    1280    6365.2354    204.87004     -2517.84   -1895.3898    16.203331 
    1290    6339.3927    204.03828   -2516.5989    5960.5786    16.259886 
    1300    6381.5292    205.39447   -2517.4895    16557.607    16.332206 
    1310     6495.327    209.05714   -2520.6355    21376.307     16.42441 
    1320    6428.1646    206.89547   -2517.8948    27181.936    16.526961 
    1330    6477.9761    208.49869   -2518.9002    29199.302     16.62555 
    1340    6435.2105    207.12224   -2516.8568     17478.77    16.713257 
    1350    6432.2023    207.02542   -2516.0725    2361.8323    16.795255 
    1360    6317.9985    203.34968   -2511.6506    7135.5386    16.885276 
    1370    6475.2934    208.41234   -2515.9292    13708.086    16.987601 
    1380    6688.3719    215.27044   -2521.9402    18230.564    17.102183 
    1390     6473.318    208.34876   -2514.1379    16640.844     17.21709 
    1400    6491.2442    208.92573   -2513.8361    13902.495    17.310099 
    1410    6911.2213    222.44302   -2526.4382    12667.748    17.376868 
    1420     6960.285    224.02218   -2527.0747    18105.404    17.430941 
    1430    6647.4371    213.95292   -2516.1017    29127.093    17.496117 
    1440    6965.3965    224.18669   -2525.4935     22812.06    17.589465 
    1450    7059.8733     227.2275   -2527.6774     22607.54    17.710822 
    1460    6893.3452    221.86767   -2521.5161    25550.088    17.844682 
    1470    7023.5231    226.05754   -2524.9919     13758.36    17.971528 
    1480    6738.9311    216.89773     -2515.12    8496.8166    18.076509 
    1490    6831.0959    219.86412   -2517.4511    9425.9843    18.150302 
    1500    6930.3514    223.05874   -2520.0138    18377.436    18.207739 
    1510    6655.9627    214.22732   -2510.5693    16964.536    18.276763 
    1520    6717.1192     216.1957   -2511.9651   -4024.4537     18.36656 
    1530    7002.5095     225.3812   -2520.5775   -25519.137    18.464155 
    1540    6901.1991    222.12045   -2516.7702   -28310.418       18.563 
    1550    6487.8441     208.8163   -2502.9569   -19264.465    18.669467 
    1560    6543.2353    210.59911   -2504.2545   -18132.193    18.785406 
    1570    6819.7152    219.49783   -2512.6341   -28327.831    18.902339 
    1580    6907.5356    222.32439   -2514.9355    -35803.87    19.016356 
    1590    6954.5617    223.83796   -2515.9598   -30108.465    19.130687 
    1600    7137.9354    229.73999   -2521.4341   -17564.396    19.247157 
    1610    7113.7953    228.96302   -2520.2779   -10410.078     19.37192 
    1620    7115.0842    229.00451   -2520.0342   -16639.635    19.510528 
    1630    7154.1893    230.26314   -2521.0918   -22656.411    19.659929 
    1640    7120.8751    229.19089   -2519.8859   -16875.603    19.799569 
    1650    7246.4235    233.23176   -2523.9072   -3825.0448    19.905755 
    1660     7120.147    229.16746   -2519.9005    10750.815    19.979847 
    1670    7124.3145    229.30159   -2520.1866    19252.995    20.037529 
    1680    7286.7765    234.53056   -2525.6885    14342.912    20.095267 
    1690    7033.4244    226.37622    -2517.873   -2104.9529    20.169782 
    1700    7022.2683    226.01715   -2517.9514   -18437.377    20.266307 
    1710    7124.8666    229.31936   -2521.7737   -11200.978     20.38661 
    1720     7138.635    229.76251   -2522.8276    2273.5437    20.528133 
    1730    7079.9817    227.87471   -2521.6631    23075.345    20.686032 
    1740    6862.3448    220.86989   -2515.4246    38420.958    20.846834 
    1750    6893.4676     221.8716   -2517.2644    27502.029    20.989201 
    1760    6786.3706    218.42461   -2514.6948    18412.216    21.107572 
    1770    6506.7611    209.42515   -2506.5584    15261.806    21.219098 
    1780    6701.7158    215.69992    -2513.702    5228.0184     21.34788 
    1790     7150.015    230.12878   -2529.1021    855.02646    21.504053 
    1800    6987.3262    224.89252   -2524.9084    1502.0367    21.678341 
    1810      6637.03    213.61796   -2514.6959     281.5107    21.848423 
    1820    6596.0333    212.29845   -2514.4273    1145.5154    21.988922 
    1830    6763.7548     217.6967   -2520.9051    11440.294    22.097644 
    1840    6726.4238    216.49517    -2520.793    13519.048    22.187737 
    1850    6823.9978    219.63566   -2525.0675   -2903.0295      22.2694 
    1860    6606.8464    212.64648   -2519.2254   -14738.348    22.357177 
    1870    6167.1858    198.49566   -2506.1183   -15200.535     22.45568 
    1880    6395.3337    205.83878    -2514.448   -14073.787    22.544006 
    1890    6862.2935    220.86824   -2530.5159   -8155.2606    22.597188 
    1900    6541.4014    210.54008   -2521.2084   -2353.2683    22.617545 
    1910     6363.879    204.82639   -2516.4662   -12951.002    22.625726 
    1920    6511.1268    209.56567   -2522.1649   -27999.219    22.635942 
    1930    6419.0961    206.60359    -2520.109   -23849.428    22.650663 
    1940    6362.1114    204.76949    -2519.151   -17681.997    22.668764 
    1950    6316.6944    203.30771      -2518.5    -9140.785    22.689569 
    1960    6562.8781    211.23132   -2527.2182   -7724.0521    22.723373 
    1970    6801.0654    218.89757   -2535.7055   -15111.447    22.789852 
    1980    6671.1776    214.71703   -2532.3662   -21006.826    22.883721 
    1990    6365.2573    204.87075   -2523.3282    -16775.84    22.970375 
    2000    6272.9753    201.90058   -2521.1198   -12118.383    23.022411 
    2010    6301.4434    202.81685   -2522.7387   -10317.654    23.046399 
    2020    6507.4903    209.44862   -2530.0463   -15663.916    23.067656 
    2030    6770.9318     217.9277   -2539.2239   -22587.945    23.104203 
    2040     6728.416    216.55929   -2538.5862   -19813.207    23.170354 
    2050    6302.0749    202.83717   -2525.5755   -6892.1306    23.271543 
    2060    6077.1292    195.59712   -2518.9674    3712.3752    23.395972 
    2070     6467.269    208.15407   -2532.1265   -7293.4359    23.517295 
    2080     6821.917    219.56869   -2544.1661   -23828.418    23.611937 
    2090    6603.1441    212.52732   -2537.7737   -33325.948    23.674663 
    2100    6154.4939    198.08716   -2523.9398   -30568.811    23.705355 
    2110    6340.1571    204.06288   -2530.4843   -32537.842    23.710731 
    2120    6728.0716    216.54821   -2543.5629   -32075.182     23.71766 
    2130     6530.715    210.19613   -2537.7801   -23630.731    23.757943 
    2140    6570.4005    211.47344   -2539.6566   -23802.032     23.84088 
    2150    6713.2606     216.0715     -2544.88   -34788.177    23.948148 
    2160    6560.7619    211.16321    -2540.616   -26594.977     24.04633 
    2170    6324.9828    203.57448   -2533.6509   -7057.3717    24.108919 
    2180     6371.797    205.08123   -2535.7665    4911.4344    24.139462 
    2190    6412.6563    206.39632   -2537.6699   -51.641902    24.157358 
    2200    6275.7396    201.98955   -2533.8347   -10775.547     24.17168 
    2210    6047.9652    194.65845   -2527.0056   -11903.801    24.187427 
    2220    6316.3858    203.29778   -2536.1165    -13354.29    24.206616 
    2230    6632.9995    213.48824    -2546.781   -23018.703    24.236676 
    2240    6515.9199    209.71994   -2543.5007   -22303.624    24.287871 
    2250    6145.0818    197.78423   -2532.0155   -12078.886     24.36367 
    2260    6369.4597      205.006   -2539.6831   -8620.3238    24.469014 
    2270    6532.0378    210.23871   -2545.3564   -6480.2292    24.584297 
    2280     6351.745    204.43584   -2539.9628    9789.9061    24.662409 
    2290    6632.3798    213.46829   -2549.4485    12836.243    24.686771 
    2300    6646.7996     213.9324   -2550.3875    3522.4786    24.688134 
    2310    6347.0851    204.28586   -2541.2254   -6016.8141    24.700293 
    2320    6263.9371    201.60968    -2539.024    1303.6882    24.750705 
    2330    6373.2915    205.12933   -2542.9997    11496.123    24.836728 
    2340    6552.7076    210.90398   -2549.2509    13351.585     24.92884 
    2350     6472.379    208.31854   -2547.1622    17723.505    25.007299 
    2360    6176.1671    198.78473   -2538.1032    30496.957    25.078926 
    2370    6103.7025     196.4524    -2536.227    24596.309    25.167222 
    2380    6000.6359    193.13512   -2533.3016    8188.6449    25.297834 
    2390    6164.0817    198.39575   -2538.9102   -6519.7072    25.463017 
    2400    6586.3112    211.98554   -2552.8584    -13248.29    25.634049 
    2410    6575.7527     211.6457   -2552.9002   -12055.599    25.784172 
    2420    6263.6628    201.60085   -2543.2472   -8530.5177    25.894974 
    2430    6235.0934    200.68132   -2542.7193   -896.92988    25.975978 
    2440    6426.7669    206.85048   -2549.2823    12958.934    26.052079 
    2450    6469.4356    208.22381   -2551.0612    19297.739    26.136818 
    2460    6405.4286    206.16369   -2549.4372    9805.0633    26.238784 
    2470    6209.5572    199.85942   -2543.5599    12807.165    26.350755 
    2480    6249.5263    201.14585   -2545.2837     15209.46    26.458069 
    2490    6264.2917    201.62109   -2546.2087    21039.536     26.55398 
    2500    5894.1666    189.70833   -2534.6921    26092.261    26.633809 
    2510    5858.3693    188.55616   -2533.8971    26161.538    26.696876 
    2520    6106.8754    196.55452   -2542.2155    8397.5864    26.759046 
    2530    6166.7657    198.48214   -2544.4202   -5023.6985    26.829899 
    2540    6293.9725    202.57639   -2548.7865   -2245.6021    26.895265 
    2550    6507.4133    209.44615   -2555.9408   -3128.5242    26.937151 
    2560    6613.6794    212.86641    -2559.687   -10239.692    26.959973 
    2570    6594.0338     212.2341   -2559.4397   -16429.868    26.977799 
    2580    6531.3656    210.21707   -2557.8675   -20813.586    27.001457 
    2590    6531.1947    210.21157    -2558.371   -18352.159    27.036695 
    2600    6454.4233    207.74062    -2556.461   -19716.242    27.080291 
    2610    6380.1337    205.34955   -2554.6814   -32704.674     27.12779 
    2620    6454.3843    207.73937   -2557.7278   -45021.185    27.181489 
    2630    6562.7071    211.22582   -2561.9706   -43956.039    27.254347 
    2640    6186.6458      199.122   -2550.6414   -31683.985    27.355186 
    2650     6030.294    194.08969   -2546.3821   -13263.991    27.466206 
    2660    6266.4455    201.69041   -2554.7964   -2547.8788    27.555331 
    2670    6176.8309     198.8061   -2552.7347   -1658.4152    27.608618 
    2680    6014.4205    193.57879   -2548.3107   -8238.6883    27.637038 
    2690    6348.9122    204.34467    -2559.919   -25719.433    27.656022 
    2700    6590.9929    212.13622   -2568.6234   -31267.067    27.672913 
    2710    6369.6602    205.01246   -2562.4739   -23781.153    27.685926 
    2720    6011.2265    193.47599   -2551.8914    -9786.612     27.69918 
    2730    6030.2685    194.08887   -2553.4351   -3488.4107    27.716947 
    2740    6135.2361    197.46734   -2557.7384   -10183.638    27.747269 
    2750    6225.8658    200.38432   -2561.5572   -13720.786    27.806793 
    2760    6550.9083    210.84607    -2573.009     -20072.6     27.90366 
    2770    6235.5582    200.69628   -2563.8495   -23313.343    28.024357 
    2780    5986.2073    192.67073   -2556.7596   -17989.294    28.145992 
    2790    6320.0307    203.41509   -2568.4706   -19017.788    28.247481 
    2800    6044.4302    194.54468   -2560.5397   -18684.709    28.315717 
    2810    5598.1581    180.18106   -2546.9865   -12896.012    28.349542 
    2820    5952.0793    191.57229   -2559.1482   -14418.347    28.382889 
    2830    6184.5819    199.05557   -2567.3681    -24033.08     28.46312 
    2840     6015.755    193.62174   -2562.6418   -31475.673    28.595724 
    2850    5742.1361    184.81511    -2554.451   -27307.132    28.752937 
    2860    6008.0724    193.37447   -2563.5751    -22048.81    28.903721 
    2870    6430.2326    206.96203   -2577.7234   -14825.158    29.031227 
    2880    6405.0708    206.15217   -2577.4917   -13293.308    29.129107 
    2890    6140.6819    197.64261   -2569.5402   -17002.939    29.211049 
    2900    6246.9477    201.06286    -2573.511   -29527.049    29.302827 
    2910    6486.1486    208.76173   -2581.7828   -33343.741    29.425274 
    2920    6263.3922    201.59214   -2575.1818    -20225.74    29.572945 
    2930    6031.8804    194.14075   -2568.2764   -6500.4896    29.712506 
    2940    6198.2345    199.49499   -2574.1542   -6216.7902    29.815149 
    2950    6394.8616    205.82359   -2581.0339    -14084.23    29.879352 
    2960    5853.9123    188.41271   -2564.1259   -8654.1079    29.924777 
    2970    5462.8627    175.82648   -2551.9268    -7438.056    29.979184 
    2980    6077.7685     195.6177   -2572.0851   -33322.403    30.067545 
    2990    6122.3917    197.05393   -2573.8135    -37976.95    30.195478 
    3000    5812.8776    187.09198    -2564.088   -28453.252    30.338257 
    3010     6081.507    195.73802   -2572.9617   -22637.597    30.457011 
    3020    6093.4924    196.12378   -2573.5136   -11094.976    30.527002 
    3030    5847.2243    188.19745   -2565.7017    3477.0718    30.549275 
    3040    6036.0787    194.27588   -2571.8499    8045.4559    30.552546 
    3050    6529.0184    210.14152    -2587.766   -9614.6442    30.571439 
    3060    6512.0539    209.59551   -2587.2831   -21245.377    30.622661 
    3070    5999.9528    193.11314   -2570.8721   -15980.485    30.695385 
    3080     5831.185    187.68122   -2565.4725    -10798.63    30.755898 
    3090    6378.7398    205.30469   -2583.1076   -4854.3739    30.779248 
    3100    6374.1013     205.1554   -2582.9501    8093.4208    30.780684 
    3110    5705.4843    183.63544   -2561.3642    14956.036    30.788507 
    3120    6052.3551    194.79974   -2572.4662    6250.9731    30.816006 
    3130    6273.1257    201.90542   -2579.4338    1721.9618    30.866341 
    3140    5704.2688    183.59632   -2560.9166    5380.9286    30.930037 
    3150    5680.3799    182.82744    -2559.901    7760.4536    30.980331 
    3160     6047.985    194.65909   -2571.3788    9850.6403    30.997944 
    3170    5958.7872    191.78819   -2568.0341    7013.5306    30.995489 
    3180     5912.463    190.29721   -2565.9995   -6914.7647    30.991186 
    3190    6179.3712    198.88786   -2573.9622   -19592.168     30.99295 
    3200    6119.6173    196.96463   -2571.2987    -11216.24    31.008876 
    3210    5871.9604     188.9936   -2562.5251    212.90814    31.049701 
    3220    5946.8414     191.4037    -2564.045   -2097.0379    31.119413 
    3230    6209.5519    199.85925   -2571.4655   -12298.404    31.212006 
    3240    6417.1155    206.53984    -2576.987   -13318.285    31.311859 
    3250    6047.3885    194.63989   -2563.8602    3811.0609    31.401609 
    3260    5677.8141    182.74485   -2550.7212    16598.054    31.470431 
    3270    6123.7243    197.09682    -2563.736    11351.769    31.513247 
    3280    6105.7514    196.51835   -2561.6038    10623.399    31.537726 
    3290     6169.199    198.56046   -2562.0659    11441.471    31.563409 
    3300    6289.1158    202.42007   -2564.2676    10876.362    31.600752 
    3310    5962.6334    191.91198   -2552.0809    11286.338     31.64183 
    3320     5881.975    189.31593    -2547.867    13370.208    31.682928 
    3330    5939.2162    191.15828   -2548.0398     7528.088    31.721721 
    3340    6127.8478    197.22954   -2552.4078    1084.8098    31.745787 
    3350    6343.9942    204.18638   -2557.6405   -3057.2588    31.757234 
    3360    6615.9655    212.93999   -2564.7173   -7564.0738    31.781684 
    3370    6429.2838    206.93149     -2557.13   -4735.7845    31.832589 
    3380    6324.6455    203.56362   -2552.3645   -2181.6638    31.888618 
    3390    6442.4792    207.35619   -2554.8757   -940.49827    31.919569 
    3400    6643.9811    213.84169   -2560.1714    24.148759    31.915627 
    3410    6574.0233    211.59004   -2556.8594    5744.7623     31.88753 
    3420    6412.1932    206.38141   -2550.7316    9287.5092    31.845122 
    3430    6703.4676    215.75631   -2559.3197    14798.352    31.809768 
    3440    6566.5596    211.34982    -2554.216    22231.294    31.809231 
    3450    6007.1292    193.34412   -2535.6095    31560.419    31.843641 
    3460    6408.1218    206.25037   -2548.0078    28112.156    31.882418 
    3470    6843.8912    220.27595   -2561.5449    13284.983    31.901665 
    3480    6300.8077    202.79639   -2543.6366    17771.921    31.895372 
    3490    6192.5657    199.31253    -2539.829    23958.637    31.865041 
    3500    6650.2641    214.04391   -2554.2683    22117.359    31.831888 
    3510    6602.2012    212.49697   -2552.4704    26593.702    31.828849 
    3520    6214.0613    200.00439   -2539.7922    35798.713    31.867659 
    3530    6075.8414    195.55567   -2535.1982     29640.01    31.934799 
    3540    6122.1594    197.04645    -2536.511    21640.648    32.011677 
    3550    6624.7211    213.22179   -2552.5466    19535.919    32.079578 
    3560    6524.1247    209.98402   -2549.1826    19326.397    32.132477 
    3570    6133.4017    197.40829   -2536.5305    14439.675    32.171442 
    3580    6240.8615    200.86697   -2539.9482    3720.2102    32.195302 
    3590    6296.4555    202.65631   -2541.6812    1552.2904    32.207569 
    3600    6341.1891    204.09609   -2543.0745    2052.5109    32.219064 
    3610    6713.8678    216.09105   -2555.0861   -1533.3505    32.236837 
    3620    6662.1002    214.42486   -2553.4929    4201.1781    32.254252 
    3630    6463.7927    208.04219   -2547.2421    7134.8945    32.264662 
    3640    6670.5797    214.69779    -2554.133    220.29391    32.284158 
    3650    6331.1589    203.77326    -2543.457   -4398.5136    32.334199 
    3660     6058.906    195.01059   -2534.9788   -6498.2732    32.421518 
    3670    5977.5477    192.39201   -2532.6129   -11206.614    32.547537 
    3680    6170.8709    198.61427   -2539.0799   -11119.477    32.703919 
    3690    6284.4406     202.2696   -2542.9855    2559.6155    32.868743 
    3700    6078.4267    195.63888   -2536.5837    11777.372     33.02714 
    3710    6327.9295    203.66932   -2544.8795    11347.743    33.168603 
    3720    6328.8635    203.69938   -2545.1939    9778.5655    33.303981 
    3730    5954.2724    191.64288   -2533.3943    3816.4603    33.444161 
    3740    6230.4609    200.53222   -2542.5698   -8738.7022     33.56396 
    3750    6571.6314    211.51306   -2553.8628   -7734.0421    33.629966 
    3760    6409.8252     206.3052   -2549.0269    4055.5185    33.648791 
    3770    6005.0746    193.27799   -2536.3656    15230.219    33.664473 
    3780    6392.4549    205.74612   -2549.2485    5359.5478    33.710846 
    3790    6810.1302    219.18933   -2563.1867   -7735.9826    33.794238 
    3800    6451.0904    207.63335   -2552.2171   -3017.4184    33.906294 
    3810    5957.7853    191.75594   -2536.9203     5196.449    34.036835 
    3820    6432.3761    207.03102   -2552.8472    2661.8974    34.178988 
    3830    6668.7922    214.64025   -2561.1914   -4769.7943    34.323683 
    3840    6413.1419    206.41195    -2553.782    -10066.17    34.448579 
    3850    6146.8657    197.84164   -2546.0858   -4661.4443    34.532876 
    3860    5969.7193    192.14005   -2541.2418    1063.4781    34.580275 
    3870    6156.3798    198.14786   -2548.1475   -5058.8019    34.616708 
    3880    6093.7683    196.13266    -2547.047    -8084.958    34.660748 
    3890    6012.0088    193.50117   -2545.3405   -3414.8846    34.710963 
    3900    6191.4776    199.27751   -2552.0847   -3088.4185    34.765196 
    3910    6224.7045    200.34695   -2554.1684    1178.7676    34.820756 
    3920    6154.3831     198.0836   -2552.9617    4833.5503    34.855541 
    3930    6112.0926    196.72244   -2552.6826    7308.8041    34.854233 
    3940    6232.7021    200.60436   -2557.6833     8429.978    34.830949 
    3950    6371.6624     205.0769   -2563.3636    12757.609    34.807183 
    3960    6104.8066    196.48794   -2556.0096     16622.65    34.793408 
    3970     6032.018    194.14518   -2554.8789    12702.357    34.782822 
    3980    6463.8036    208.04254    -2570.079    5591.3341    34.775675 
    3990    6581.8939    211.84336   -2575.2964    7206.6293    34.788599 
    4000    6331.0875    203.77096   -2568.6821    15386.229    34.832269 
    4010    6258.3405    201.42955   -2567.8182    8808.1165    34.893935 
    4020    6156.7164    198.15869    -2566.017   -2442.1543    34.958435 
    4030    5867.6633     188.8553    -2558.096   -7043.6919    35.033898 
    4040    5907.9704    190.15261   -2560.6847   -6433.0441    35.128302 
    4050     6068.049    195.30487   -2567.1015   -8984.0117    35.222864 
    4060    5926.7561    190.75724   -2563.7239   -5316.5374    35.296657 
    4070    5945.2639    191.35293   -2565.4174   -3394.8205    35.349146 
    4080    5943.6525    191.30107   -2566.3823   -9960.8952    35.393036 
    4090    5703.9996    183.58765   -2559.5673   -14301.461    35.428133 
    4100    5521.7891    177.72307   -2554.4443   -21605.907    35.445026 
    4110    5672.4263    182.57144   -2559.9271   -30733.792     35.43659 
    4120    5612.5722    180.64499   -2558.5151   -30828.231    35.431258 
    4130    5456.1997    175.61202   -2553.8717   -21989.391    35.478862 
    4140    5531.9455    178.04996   -2556.5936   -21984.822    35.596924 
    4150    5643.6471    181.64516   -2560.3785   -26336.602     35.76337 
    4160    5578.9116     179.5616   -2558.3935    -22660.99    35.923869 
    4170    5510.3977    177.35643   -2556.2176   -14044.809     36.01598 
    4180    5407.0606    174.03044   -2552.8303   -11167.636    36.016466 
    4190    5435.8873    174.95825   -2553.6198   -14876.348    35.954264 
    4200     5512.679    177.42985   -2555.8825   -16991.523    35.887634 
    4210    5527.8362     177.9177   -2556.0785   -19880.261     35.85909 
    4220    5946.4794    191.39205   -2569.2365   -18599.089    35.874772 
    4230    6200.0071    199.55204   -2577.0505   -19729.387    35.910782 
    4240    6110.3206    196.66541   -2573.8479   -16794.962     35.94202 
    4250    5968.7973    192.11037   -2569.0317   -6589.4114    35.963577 
    4260    5757.0059     185.2937   -2561.9451   -2640.8336    35.985922 
    4270    5938.3442    191.13022   -2567.5214   -11317.079    36.019587 
    4280    6068.8512    195.33069   -2571.4403   -11833.962    36.071402 
    4290     6036.418     194.2868   -2570.1252   -5518.7779    36.137762 
    4300     6079.372     195.6693   -2571.2706   -12575.128    36.181266 
    4310    5914.2624    190.35512   -2565.7163   -23683.637    36.171922 
    4320    5851.7615    188.34348   -2563.4862   -22552.566    36.119664 
    4330    5761.6037    185.44169   -2560.3313   -15081.018    36.061733 
    4340    5861.9239    188.67057   -2563.3044   -13176.353    36.027979 
    4350    5842.4885    188.04503   -2562.3835   -12783.889    36.037983 
    4360    5743.3599     184.8545    -2558.891   -14820.163    36.095448 
    4370     5683.715    182.93478   -2556.6332   -17595.937     36.18815 
    4380    5903.5796    190.01129   -2563.3564   -24540.694    36.300283 
    4390    5905.7546    190.08129   -2563.0332   -26604.601    36.415635 
    4400    5797.4409    186.59513   -2559.1567   -16400.537    36.522628 
    4410    5722.5057    184.18329     -2556.34   -13215.318    36.618936 
    4420     5717.219    184.01313   -2555.7341    -16789.59     36.70305 
    4430    5922.5567    190.62208   -2561.8696   -31685.671     36.76304 
    4440    6207.0342    199.77821   -2570.5411   -42177.285    36.802526 
    4450    6051.1215    194.76004   -2565.0379   -35645.266    36.846368 
    4460    5972.0055    192.21363   -2562.0549   -31335.058    36.923049 
    4470    6014.1918    193.57143   -2562.9795   -28180.271    37.045261 
    4480    6166.2598    198.46586   -2567.4551   -23673.526    37.185184 
    4490    6150.0261    197.94336   -2566.5313   -15223.363    37.294756 
    4500    6021.9528    193.82123   -2562.0207   -12585.076     37.34682 
    4510    6335.2189    203.90394   -2571.7675   -21683.211    37.354563 
    4520    6365.2539    204.87064   -2572.4173    -19470.95    37.366188 
    4530    6152.3385    198.01779   -2565.3126   -13576.047    37.414262 
    4540    5943.2577    191.28836   -2558.3722   -17471.712    37.515513 
    4550    5886.8454    189.47269   -2556.3433   -20536.041    37.696474 
    4560     5948.028     191.4419   -2558.1007   -17814.909     37.94917 
    4570    5874.3112    189.06926   -2555.4857   -8453.7247    38.205917 
    4580     5964.641     191.9766    -2558.154    4853.9189    38.397243 
    4590    6115.1758    196.82168   -2562.7432    5172.7545    38.508753 
    4600    6302.9771    202.86621   -2568.5644    -5065.427    38.567652 
    4610    6024.9945    193.91912   -2559.4091   -7510.8994    38.618363 
    4620     5649.313    181.82752   -2547.1371   -2046.7574    38.693225 
    4630     5741.699    184.80104   -2549.8861    6271.4206     38.79006 
    4640    6413.9141     206.4368   -2571.2975    6803.5181    38.877561 
    4650     6175.639    198.76774   -2563.3901    12124.269    38.928937 
    4660    5622.9185      180.978   -2545.3918    15737.611    38.935894 
    4670     5931.838    190.92081   -2555.1453    4260.4383    38.925245 
    4680    6124.9502    197.13628   -2561.1229    1110.6411    38.953318 
    4690    5834.2531    187.77996   -2551.5135    9052.9443    39.058378 
    4700    5852.3843    188.36353   -2551.8556     16892.98     39.22126 
    4710    6067.9063    195.30027   -2558.5236    18139.541    39.380148 
    4720    6003.3929    193.22386   -2556.1466    20372.293     39.46131 
    4730    6230.7285    200.54083   -2563.1874    8864.9694    39.430928 
    4740    6474.1069    208.37416   -2570.7736   -8114.2668    39.334524 
    4750     6135.162    197.46495   -2559.6535   -9693.1898    39.259627 
    4760    5839.2917    187.94214    -2549.964   -4300.7233    39.269314 
    4770    6003.6307    193.23151    -2555.088      1148.98    39.372867 
    4780    6229.6833    200.50719   -2562.1824    3852.4254    39.518835 
    4790    6168.9593    198.55274   -2560.0651    4890.1235    39.627066 
    4800    6010.8165     193.4628   -2554.8302   -328.98033    39.653674 
    4810    6113.1004    196.75488   -2558.0251   -11328.974    39.601645 
    4820    5865.3704     188.7815   -2549.9121   -12357.818    39.486765 
    4830    6157.1669     198.1732   -2559.2036   -14043.605    39.349909 
    4840    6439.7427    207.26812    -2568.204   -13345.861    39.281947 
    4850     6400.156    205.99399   -2566.8932   -8078.9298    39.336524 
    4860    6448.4218    207.54746   -2568.5198   -7229.5712    39.472942 
    4870    6384.0072    205.47423   -2566.6156   -11452.506    39.615419 
    4880    6252.5784    201.24409    -2562.654   -2812.3287    39.738715 
    4890    6185.1632    199.07428   -2560.8389    5602.3638    39.850922 
    4900    6295.7508    202.63363   -2564.8502    1715.5765    39.957137 
    4910    6368.3908     204.9716   -2567.7736   -5772.6959    40.069408 
    4920    6159.1963    198.23851   -2561.7194   -5955.4857    40.219411 
    4930    6322.8858    203.50699    -2567.817   -7072.3745    40.417727 
    4940    6370.7528    205.04762   -2570.3382   -10960.155    40.628102 
    4950    6087.8013    195.94061   -2562.3337   -3392.2492    40.796173 
    4960    5856.0433     188.4813   -2556.0152    20247.707    40.894653 
    4970    6270.8967    201.83368   -2570.6265    27119.566    40.942481 
    4980    6641.5983      213.765   -2584.0534    11666.539     40.98958 
    4990    6315.1436     203.2578   -2575.1845    1732.2967    41.063057 
    5000    5922.5053    190.62043   -2564.1983    5986.8295    41.162987 
    5010    5888.4704    189.52499   -2564.7423    5869.7009     41.26802 
    5020    5878.0542    189.18973   -2566.0586    5236.5771    41.343499 
    5030    5633.3002    181.31214   -2559.7429    9764.6942    41.369935 
    5040    5756.0296    185.26228   -2565.1959    9597.2074    41.350766 
    5050    5819.9252    187.31881   -2568.7225    8500.6408    41.302058 
    5060    5624.7634    181.03738   -2563.8118    11613.135    41.236547 
    5070    5702.5936     183.5424   -2567.6021    7114.8403    41.178164 
    5080    5648.9007    181.81425     -2567.08    998.49095    41.159714 
    5090    5533.3873    178.09636   -2564.4319   -3086.1357    41.192363 
    5100    5732.0826    184.49153   -2571.8541   -1627.4969    41.249442 
    5110    5662.3742    182.24791   -2570.5379    11071.195     41.30687 
    5120    5787.0069    186.25931   -2575.4322    12369.602    41.359099 
    5130     5760.817    185.41637   -2575.4285     14520.36    41.403764 
    5140    5401.9932    173.86734    -2564.602    14928.357    41.433215 
    5150     5563.811    179.07558   -2570.4518    3632.9654    41.460337 
    5160    5980.7224    192.49419   -2584.4996   -10324.875    41.513518 
    5170    5983.5216    192.58429   -2585.2042   -16589.365     41.59686 
    5180    5901.8842    189.95672   -2583.1911   -8323.9798     41.69299 
    5190    6029.3109    194.05805   -2587.9179    7803.2327    41.779172 
    5200    5939.3369    191.16217   -2585.6479    23962.446    41.851295 
    5210    5701.6104    183.51076   -2578.5944    24820.356    41.932475 
    5220     5714.649    183.93041   -2579.5693    16099.324     42.04241 
    5230    5928.6205    190.81725    -2587.011    7862.0276    42.163767 
    5240    5909.3343    190.19651   -2586.9372    1456.8134    42.266073 
    5250    5731.8783    184.48495   -2581.7678    5081.2839    42.342623 
    5260    5534.3314    178.12675   -2575.9063    17576.514    42.407134 
    5270    5539.0537    178.27874   -2576.5027    27640.892    42.474586 
    5280    5602.9425    180.33505   -2578.9662    24183.789    42.546738 
    5290    5389.9855    173.48087    -2572.448    18030.443    42.623762 
    5300    5393.6593    173.59911   -2572.8388     14381.94    42.723888 
    5310    5717.4105     184.0193   -2583.5008    8165.9968    42.865301 
    5320    5835.4782    187.81939   -2587.4989    2011.1683    43.035355 
    5330    6037.8638    194.33333   -2594.2498    1239.0655    43.197207 
    5340    6009.7254    193.42768   -2593.6013    9607.3959    43.323841 
    5350    5760.1398    185.39457   -2585.8542    20320.483    43.418837 
    5360    5557.6136    178.87611   -2579.5916    22637.909    43.506659 
    5370    5838.4702     187.9157   -2588.8925     20187.37    43.600743 
    5380    5950.1911    191.51152   -2592.7446    17032.402     43.69834 
    5390     5867.438    188.84805   -2590.3481    7064.1525    43.789486 
    5400    6055.0272    194.88575   -2596.6974   -3381.0236    43.863382 
    5410    6189.7016    199.22035   -2601.3987   -5473.4619    43.905479 
    5420    5958.3721    191.77483   -2594.3718   -1175.9247    43.921148 
    5430    5722.4047    184.18004   -2587.2051     1631.951    43.942021 
    5440    5857.6391    188.53266   -2592.0166    7183.8521    44.001022 
    5450    5684.2425    182.95176    -2586.895    13291.065    44.106097 
    5460    5328.1861    171.49181   -2575.8325    18042.257    44.225217 
    5470      5624.07    181.01506   -2585.7446     13647.59    44.312353 
    5480    5866.1762    188.80743   -2593.9248     14459.56    44.362403 
    5490    5618.1311    180.82391   -2586.3131    20849.431     44.42021 
    5500    5563.7573    179.07385   -2584.9407    25402.986    44.530813 
    5510    5644.6388    181.67708   -2587.8881    15473.166     44.68015 
    5520     5915.462    190.39374   -2596.9807    1837.5048    44.818127 
    5530    5844.2749    188.10252   -2595.0758    2193.6062    44.923416 
    5540    5632.3542    181.28169   -2588.6624    11980.039    44.981549 
    5550    5528.8486    177.95028    -2585.726    9654.2773     44.99433 
    5560    5543.5783    178.42437   -2586.5771   -2403.4261    45.001523 
    5570    5510.6941    177.36597   -2585.8765   -12523.459    45.042301 
    5580    5522.5512     177.7476   -2586.5852   -19761.253    45.123404 
    5590    5686.6334    183.02871   -2592.2034   -31834.455    45.221185 
    5600    5441.6683    175.14432   -2584.6362   -26206.179    45.306438 
    5610    5138.5618     165.3886   -2575.1322    -12018.41    45.365411 
    5620      5511.02    177.37646   -2587.3413   -12458.621    45.402823 
    5630    5986.3025    192.67379   -2602.8648    -24408.05    45.440753 
    5640    5742.1132    184.81437   -2595.2385   -33544.071    45.495392 
    5650    5457.5507    175.65551   -2586.3178   -37767.861    45.562192 
    5660    5827.6469    187.56734   -2598.4837    -38204.96    45.609591 
    5670    6166.8245    198.48403   -2609.7058   -38701.526    45.616996 
    5680    5870.2404    188.93824   -2600.5312   -34507.782    45.591834 
    5690    5270.7886    169.64442    -2581.625   -30728.044    45.556012 
    5700    4889.2034    157.36281   -2569.6636   -23342.223    45.540818 
    5710    4981.8698    160.34535   -2572.8879   -19021.798    45.580974 
    5720    5134.2825    165.25087   -2577.9378   -20350.141    45.692328 
    5730    5369.9894    172.83728   -2585.5991   -23076.608    45.856194 
    5740    5672.1118    182.56132   -2595.3748   -28803.543    46.024531 
    5750    5496.6038    176.91246   -2589.7304   -33901.127    46.146291 
    5760    5439.9767    175.08987   -2587.8909   -33639.071    46.194744 
    5770    5765.1966    185.55733   -2598.3151   -29683.589    46.192492 
    5780    6009.5472    193.42194   -2606.1383   -24121.466    46.193359 
    5790     5764.788    185.54418   -2598.2399   -12429.105    46.225852 
    5800    5399.1334     173.7753   -2586.4548    3057.1168    46.282924 
    5810    5471.6133    176.10812   -2588.7505    6510.0413     46.35774 
    5820    5538.6112     178.2645   -2590.8249    426.10163    46.448254 
    5830    5263.6644    169.41512   -2581.8315   -5295.3628    46.540406 
    5840    5269.1436    169.59148   -2581.8167   -3668.3139    46.634063 
    5850    5558.4459     178.9029    -2590.862   -3800.2228    46.745005 
    5860    5547.8866    178.56304   -2590.1804   -2981.3658    46.873451 
    5870      5520.47    177.68061    -2588.908   -1876.4331    46.991274 
    5880    5934.3875    191.00287   -2601.8122   -11758.123    47.081185 
    5890    6117.7834    196.90561   -2607.2529   -22781.854    47.146525 
    5900    6170.9203    198.61586   -2608.5531   -19702.003    47.197583 
    5910    5985.0854    192.63462   -2602.2291   -6717.8651     47.26594 
    5920    5436.7945    174.98745   -2584.2609    9578.3498    47.366869 
    5930    5248.8766    168.93917   -2577.8951    10906.101    47.487272 
    5940    5289.8776    170.25882   -2578.8199     9257.765    47.613117 
    5950    5204.8637    167.52258   -2575.5951    6738.0355    47.734893 
    5960    5334.6368    171.69943   -2579.2034   -3847.3224    47.846342 
    5970    5605.5039    180.41749   -2587.2686    -4033.864    47.944664 
    5980    5347.2269    172.10465   -2578.2208    8532.0132    48.031099 
    5990    5107.6555    164.39386   -2569.7484     15943.78    48.106464 
    6000    5474.6801    176.20683   -2580.7178    10946.498    48.161799 
    6010    5852.7536    188.37542   -2591.9068    7546.2362    48.192423 
    6020    5932.2226    190.93319   -2593.4389    7383.7258    48.208789 
    6030     5886.538    189.46279   -2590.9784    5565.7628    48.230822 
    6040     5720.774    184.12755   -2584.6838   -896.00726    48.267016 
    6050    5727.8777    184.35619   -2583.9798    1202.9113    48.322009 
    6060    5892.3876    189.65107   -2588.3442    12843.918    48.405169 
    6070    5702.3002    183.53296   -2581.2927    26781.858     48.51293 
    6080    5717.4954    184.02203   -2580.8972    28774.343     48.61606 
    6090    6097.5097    196.25308   -2592.2517    25886.343    48.699858 
    6100     5939.855    191.17884   -2586.3019    24122.558    48.774967 
    6110    5935.9489    191.05312   -2585.3926    10936.532    48.840293 
    6120    6360.6607     204.7228   -2598.3371    -1116.788    48.886843 
    6130    6364.2448    204.83816   -2597.7996    2178.2939    48.904355 
    6140    5874.2474    189.06721   -2581.5007    14002.795    48.878675 
    6150    5803.4215    186.78762   -2578.7948    22843.087     48.81513 
    6160     6025.428    193.93308   -2585.5567    29679.238     48.74404 
    6170    5762.3923    185.46707   -2576.7225    31879.392     48.69109 
    6180    5702.4413     183.5375   -2574.4801    23292.571    48.664734 
    6190    6142.2632    197.69351   -2588.3587    9075.5177    48.677125 
    6200    6124.5893    197.12466    -2587.556    3588.1019    48.749341 
    6210     5740.467    184.76139   -2575.0239    7708.4538    48.878289 
    6220    5826.7553    187.53864   -2577.7025    5724.7481    49.021932 
    6230    5885.7888    189.43868   -2579.5254    8559.0751    49.126265 
    6240    5763.6877    185.50876   -2575.5463    22240.113    49.179302 
    6250    5892.6202    189.65856   -2579.6952    23773.034    49.191742 
    6260    6110.0564    196.65691   -2586.7456    15746.135    49.183858 
    6270    6092.9803     196.1073   -2586.3189    10295.269    49.180846 
    6280    6108.9186    196.62029   -2587.0612    13967.925     49.20611 
    6290     6098.954    196.29957   -2587.0592    17024.873    49.276375 
    6300    6103.5101    196.44621   -2587.6349    29641.897    49.395842 
    6310    5870.9364    188.96065   -2580.6634    43894.563    49.541807 
    6320    5609.9708    180.56127   -2572.7987    45764.666    49.675223 
    6330    5833.3946    187.75233   -2580.5924    28049.642    49.769074 
    6340    5846.0189    188.15865   -2581.6504    19063.961    49.822476 
    6350    5775.3853    185.88526   -2580.0837    14163.184    49.853579 
    6360    5808.8078    186.96099   -2581.9446    6669.8603    49.877512 
    6370    5609.1618    180.53522   -2576.3465    4209.1606     49.90804 
    6380    5301.0269    170.61767   -2567.2302    8025.2476    49.956023 
    6390    5508.3128    177.28932   -2574.7039    5119.1724    50.027583 
    6400    5883.8746    189.37707   -2587.6795    2177.0754    50.120235 
    6410    5801.0367    186.71087   -2585.9497    1999.9123    50.214118 
    6420    5947.6331    191.42919   -2591.7171   -5689.5227    50.281227 
    6430    5826.5597    187.53235   -2588.9415   -5928.5926    50.317541 
    6440    5755.6723    185.25078   -2587.8155    4044.6894    50.346891 
    6450    6051.0276    194.75702   -2598.5921    7723.8611    50.397492 
    6460    6165.0865    198.42809   -2603.6725   -2123.0438    50.471655 
    6470    5905.5887    190.07595   -2596.8032   -13284.483    50.559727 
    6480     5647.249    181.76109   -2589.9514   -15044.332    50.671442 
    6490    5656.5209    182.05951   -2591.7002   -6535.7966    50.817106 
    6500    5705.3193    183.63013   -2594.7015    2970.9072    50.988842 
    6510    5697.5742    183.38085    -2595.891   -3862.1593    51.158072 
    6520    5354.4072    172.33575   -2586.1645   -6964.9581     51.31157 
    6530    5410.0665    174.12719   -2589.1489   -6721.0414     51.45554 
    6540    5953.1672    191.60731   -2607.8507   -10539.821    51.596195 
    6550    5853.0938    188.38637   -2605.8453   -12504.254    51.723148 
    6560    5429.2386    174.74426   -2593.2916   -10810.118    51.831723 
    6570    5549.6288    178.61911    -2598.165   -8531.3174    51.929248 
    6580    5744.0232    184.87585   -2605.3745   -2877.5874    51.996541 
    6590    5547.1958     178.5408   -2599.9199    1833.2455    52.004248 
    6600    5313.3883    171.01553   -2593.1482   -1896.2399      51.9684 
    6610    5557.7143    178.87935   -2601.6999   -7687.0041    51.930392 
    6620     5760.115    185.39377   -2608.8693   -6610.1002    51.922125 
    6630     5686.409    183.02149    -2607.122   -11070.309    51.959234 
    6640    5480.5301    176.39512   -2601.0752   -21877.522    52.026331 
    6650    5267.6718     169.5441   -2594.7202    -16920.12    52.086159 
    6660    5328.6374    171.50633   -2597.1044   -6799.0025    52.094367 
    6670    5602.2321    180.31219   -2606.2896   -11402.034    52.020591 
    6680    5673.6491     182.6108   -2608.9742   -10707.394    51.896163 
    6690    5210.2769    167.69681   -2594.3876    1642.1144    51.801597 
    6700     5094.742    163.97822   -2590.9292   -4022.1876    51.772284 
    6710    5598.4989    180.19203     -2607.37    -20862.76    51.795975 
    6720    5869.7994    188.92405   -2616.3378   -23830.797    51.846634 
    6730    5565.7974    179.13951   -2606.7914   -19148.054    51.904197 
    6740    5582.9164     179.6905   -2607.6064    -18395.52    51.952281 
    6750    5789.5632    186.34158   -2614.5385   -21371.206    51.982387 
    6760    5670.8146    182.51957   -2611.0251   -19382.078    51.993047 
    6770    5308.3259    170.85259     -2599.64   -1512.0292    51.989704 
    6780    5521.3049    177.70748   -2606.7856    2481.0875    51.980049 
    6790    5652.8356     181.9409   -2611.3059   -1500.6939    51.953307 
    6800    5538.4249    178.25851   -2607.8981   -5643.3384    51.886392 
    6810    5778.1789    185.97517   -2615.9423   -14955.126    51.799188 
    6820    5735.9824    184.61704   -2614.9297   -21064.402    51.736846 
    6830     5604.754    180.39336   -2611.0892   -21204.453    51.717594 
    6840    5455.6395    175.59399   -2606.6701   -16060.748    51.741637 
    6850    5546.3883    178.51481   -2609.9778   -7295.8971    51.795132 
    6860    5634.6122    181.35437   -2613.2155    3268.6716    51.840803 
    6870    5514.8918    177.50107   -2609.7675    8969.6714    51.848082 
    6880     5460.933    175.76437   -2608.4471    5017.5235    51.814766 
    6890    5337.7253    171.79883   -2604.8889   -202.96205    51.768778 
    6900     5152.323    165.83151    -2599.272   -4353.6793    51.748292 
    6910    5404.0478    173.93347   -2607.7181   -11372.262    51.764036 
    6920    5517.5327    177.58607   -2611.7108   -15928.589    51.812985 
    6930    5250.1972    168.98167   -2603.4147   -19019.844    51.883347 
    6940    5346.4795    172.08059   -2606.8221   -20851.994     51.95282 
    6950    5395.7057    173.66498   -2608.7035   -16899.966    52.005314 
    6960    5057.6763    162.78524   -2598.0722   -12521.393    52.029635 
    6970    4981.4386    160.33147    -2595.827    -15186.29     52.01737 
    6980    5120.8039    164.81705    -2600.462   -19203.433    51.974636 
    6990    5186.9116    166.94477   -2602.6879   -23399.121    51.925649 
    7000    5055.9468    162.72957   -2598.5279   -24260.144    51.894299 
    7010    4894.7889    157.54258   -2593.3306   -22423.693    51.878836 
    7020     5018.006    161.50842   -2597.2302   -19938.617    51.868581 
    7030    5139.5366    165.41997   -2600.9901   -14858.613    51.854178 
    7040    5434.6702    174.91908    -2610.297   -14215.467    51.827761 
    7050    5673.3075    182.59981   -2617.7775   -13714.667    51.792283 
    7060    5486.2006    176.57763   -2611.5545   -11368.596    51.750864 
    7070       5455.5     175.5895   -2610.3853   -14775.229    51.693248 
    7080    5763.2611    185.49503    -2620.135   -26355.248    51.605406 
    7090    5714.5042    183.92575   -2618.4229   -23712.381    51.518905 
    7100    5462.4694    175.81382   -2610.2076   -11621.275    51.475694 
    7110    5452.6389    175.49742   -2609.8246   -8840.0642    51.485343 
    7120    5422.4469    174.52566   -2608.7669   -8937.7875     51.51967 
    7130    5641.7079    181.58275   -2615.7562   -7039.2763    51.533691 
    7140    5905.2526    190.06514   -2624.2123   -10716.909    51.519639 
    7150     5794.507     186.5007   -2620.6754   -1717.6058    51.500193 
    7160    5716.2939    183.98336   -2618.2695    6233.7761    51.498317 
    7170    5571.9492    179.33751   -2613.8096     1664.713    51.531043 
    7180    5020.0329    161.57365   -2596.2121   -5523.5443    51.587202 
    7190    5058.8919    162.82436   -2597.6155   -11597.771    51.627451 
    7200    5594.1389     180.0517   -2614.9877   -21988.424    51.622378 
    7210    5609.4378    180.54411   -2615.6486   -21859.507    51.574036 
    7220    5211.2774    167.72901   -2603.0043   -10658.232    51.504137 
    7230    5548.5336    178.58386   -2614.0835   -9282.1179    51.442621 
    7240    5884.0107    189.38145   -2625.1567   -11206.556    51.411146 
    7250    5736.8098    184.64368   -2620.7865   -4808.7288    51.410877 
    7260    5499.2886    176.99887   -2613.5953    1360.5946    51.433163 
    7270    5455.2842    175.58256    -2612.686   -5186.2972    51.453008 
    7280    5583.6435     179.7139   -2617.4144   -15109.962    51.437791 
    7290    5303.5176    170.69783    -2609.035   -9808.9995    51.378963 
    7300    5133.2274    165.21691    -2604.203   -758.39716    51.306918 
    7310    5386.8809    173.38094   -2613.0664   -3620.2634    51.283862 
    7320    5558.2443    178.89641   -2619.3616   -7404.7003    51.341565 
    7330    5490.3491    176.71115   -2618.0331   -12349.789    51.442593 
    7340    5360.1661     172.5211    -2614.776   -14488.626    51.514473 
    7350    5126.7863     165.0096   -2608.1913   -12824.133    51.519989 
    7360    5265.9084    169.48735   -2613.6369   -12816.379    51.472663 
    7370    5196.9574    167.26811   -2612.4037   -14210.175    51.409262 
    7380    5050.6613    162.55945   -2608.6652   -4731.9694    51.358333 
    7390     5071.557      163.232   -2610.2907    9190.5404    51.332756 
    7400    5285.7319    170.12538   -2618.1445    6832.1363    51.337943 
    7410    5547.9725     178.5658    -2627.628    1224.4508      51.4016 
    7420    5362.1038    172.58347    -2622.714   -1234.3766    51.529794 
    7430    5134.2262    165.24905   -2616.4208    -4631.614    51.674264 
    7440    5113.6446    164.58662   -2616.7666   -2118.3271    51.796303 
    7450    5124.2185    164.92695   -2618.0776    5610.4893    51.889916 
    7460    5243.1622    168.75525   -2622.8552    5513.5889    51.948162 
    7470    5378.2529    173.10324   -2628.1778    4558.4513    51.980997 
    7480    5138.3311    165.38117   -2621.3862   -3278.2853    52.014138 
    7490    4958.3529    159.58844   -2616.4597   -15178.639    52.036248 
    7500    4877.3082    156.97995   -2614.6343   -17562.132    52.029797 
    7510    4902.0453    157.77613   -2616.1197   -20345.992     52.03313 
    7520    5288.8707    170.22641   -2629.2451   -26225.311      52.0911 
    7530     5422.501     174.5274   -2634.2306     -32338.8    52.197462 
    7540    5180.5336     166.7395    -2627.091   -37612.419     52.32494 
    7550    5133.0599    165.21152   -2626.1918   -40498.074     52.44146 
    7560    5078.1042    163.44273   -2624.9947   -46527.754    52.515032 
    7570    5049.5123    162.52247   -2624.6043    -46856.09    52.550232 
    7580    5067.9792    163.11684   -2625.6776   -40932.256     52.59133 
    7590     5144.205    165.57023   -2628.5785   -32572.669     52.67679 
    7600    5126.7928     165.0098   -2628.4261   -22914.053    52.815702 
    7610     5220.131    168.01397   -2631.8243   -29634.587    52.993572 
    7620     5081.027     163.5368   -2627.7169   -38104.519    53.183031 
    7630    4714.9717    151.75502   -2616.2218   -35095.937    53.336012 
    7640    4942.6176    159.08198    -2623.777   -35654.341    53.408642 
    7650    5432.0698    174.83538   -2639.7458     -32819.6     53.41345 
    7660    5196.7652    167.26192   -2632.3633   -17531.059    53.413306 
    7670    4939.7287      158.989   -2624.2507   -9093.0068    53.458596 
    7680    5292.2575    170.33541   -2635.7616   -12079.752    53.552609 
    7690    5257.5938    169.21974   -2634.7798    -16600.22    53.666878 
    7700      4979.92    160.28259   -2625.9496   -11988.745    53.763231 
    7710    5094.6088    163.97394   -2629.7452   -9406.5207    53.815406 
    7720     5123.748    164.91181   -2630.7361   -11740.523    53.842047 
    7730    5142.0361    165.50042   -2631.3625    -19003.82    53.876146 
    7740    5177.7422    166.64965   -2632.5271    -17873.12    53.932178 
    7750    5134.2416    165.24955   -2631.1363   -9709.2521    54.006958 
    7760    4803.3941    154.60097   -2620.4423   -8009.1111    54.089359 
    7770    4776.3564    153.73074   -2619.4847   -18166.646     54.14642 
    7780    5041.0985    162.25167   -2627.8469    -32033.52    54.153874 
    7790    5168.1998    166.34252   -2631.7222   -33430.973    54.125274 
    7800    5058.1749    162.80128   -2627.9347    -30370.32    54.081751 
    7810    4969.6262    159.95128   -2624.7966   -29285.375    54.027735 
    7820    5233.8248    168.45471   -2632.9807   -32945.788    53.968887 
    7830    5183.0837    166.82157   -2630.9729   -27838.272    53.920576 
    7840    4731.0715    152.27321   -2616.0161   -14845.804    53.899708 
    7850    4643.0398    149.43984   -2612.7307   -13970.939    53.894966 
    7860    4753.7388    153.00277   -2615.7137   -20644.647    53.882274 
    7870    4912.5204    158.11328   -2620.1152   -28727.879    53.853283 
    7880    5068.2678    163.12613   -2624.2973   -37934.819    53.808527 
    7890    5031.7608    161.95113   -2622.1774   -43140.782    53.743587 
    7900    5134.4646    165.25673   -2624.4664   -41165.632    53.657631 
    7910    5101.4504    164.19414   -2622.2764   -29291.943    53.576488 
    7920    4937.9922    158.93311   -2615.8217   -15253.744    53.536466 
    7930    5004.7995    161.08335    -2616.698   -6957.2632    53.553154 
    7940    5358.5628     172.4695   -2626.6719   -9775.1287    53.604582 
    7950    5579.0149    179.56492   -2632.2345   -10897.078     53.65329 
    7960    5297.0145    170.48852   -2621.6297   -12944.716    53.672503 
    7970    5050.6594    162.55939     -2612.26   -16810.851    53.650318 
    7980    5339.2316    171.84731   -2620.1097   -18492.813    53.588198 
    7990    5572.3234    179.34955   -2626.1074   -13143.046    53.501598 
    8000    5468.8985    176.02074   -2621.3354   -7135.8232    53.414561 
    8010    5436.8954     174.9907    -2618.991   -8465.6215    53.357447 
    8020    5370.6683    172.85913   -2615.6526   -11823.687     53.36147 
    8030    4898.0504    157.64755   -2599.3297   -14617.041    53.423895 
    8040    5169.7344    166.39191   -2607.0798   -31152.957    53.487144 
    8050    5441.5843    175.14162     -2614.81   -37420.871    53.517479 
    8060    5329.3257    171.52848   -2610.2569     -24310.6     53.52439 
    8070    5270.4021    169.63198   -2607.5515   -8804.5916    53.538445 
    8080    5182.8095    166.81275   -2603.9949   -1250.6062    53.584793 
    8090     5396.819    173.70081   -2610.2235   -3567.0562    53.662756 
    8100    5699.1557    183.43175   -2619.3577   -5699.9582    53.740105 
    8110     5732.155    184.49386    -2619.928   -6182.1668    53.787629 
    8120    5607.3819    180.47794   -2615.5666   -2986.3591    53.805942 
    8130    5270.3335    169.62977   -2604.4628       4126.9    53.813608 
    8140    5307.6168    170.82976   -2605.4762    6312.7518    53.813577 
    8150    5492.4978     176.7803   -2611.2888    8344.0176     53.80354 
    8160    5272.6777    169.70522   -2604.0912    18005.988    53.807229 
    8170    5346.2281     172.0725   -2606.3999    23820.628    53.827688 
    8180    5396.6029    173.69385   -2607.9808    13461.315    53.817106 
    8190    5336.1496    171.74812   -2606.0199    9754.4277    53.716773 
    8200    5573.8722     179.3994   -2613.7081    8305.5734    53.536577 
    8210    5900.6759    189.91783   -2624.3292    2681.9768    53.353788 
    8220    6021.0731    193.79291   -2628.4438    3425.5996    53.246066 
    8230    5618.7392    180.84348   -2615.8313    5224.0046    53.248655 
    8240    5306.5632    170.79585   -2606.1756    9794.6649    53.340639 
    8250    5252.1086    169.04319   -2604.7974    13050.804    53.470425 
    8260    5756.0377    185.26254    -2621.439    14728.499    53.564791 
    8270     5988.931    192.75839   -2629.4865    12608.775    53.568956 
    8280    5446.5715    175.30213   -2612.6067    15085.963    53.501175 
    8290    5539.9715    178.30828   -2616.2618    16241.597    53.441289 
    8300    5733.8263    184.54765   -2623.2065    19450.227    53.457969 
    8310    5592.4774    179.99823   -2619.4248    19374.129     53.56505 
    8320    5402.9241    173.89731   -2614.1061    13911.099    53.730131 
    8330    5643.7004    181.64688   -2622.6869    6963.7422    53.900092 
    8340    5835.5362    187.82126   -2629.7909    9421.1285    54.046449 
    8350     5617.518    180.80418   -2623.7517    12749.381    54.174347 
    8360    5484.6519    176.52778   -2620.4819    9353.4339     54.28614 
    8370    5538.4142    178.25816   -2623.2208    4359.7637    54.386775 
    8380     5732.597    184.50808   -2630.5581    5996.2994    54.492712 
    8390    5546.4503    178.51681   -2625.6774    13398.529      54.6066 
    8400    5251.1874    169.01354   -2617.2551    19374.894    54.676031 
    8410    5037.4803    162.13521   -2611.3593    19408.574    54.644519 
    8420    5220.6332    168.03013   -2618.1867    7585.2168    54.518182 
    8430    5446.8264    175.31033   -2626.4112   -2067.0244    54.372835 
    8440     5221.607    168.06147   -2620.0758   -2812.9582    54.285347 
    8450    5036.7957    162.11318   -2614.9615   -2959.2663    54.269181 
    8460    5150.3242    165.76718   -2619.4083   -68.206724     54.29708 
    8470      5178.16     166.6631   -2621.0507    5959.7825    54.331697 
    8480    5090.9507     163.8562   -2618.9497    5820.1914    54.344325 
    8490    5027.8432    161.82504   -2617.5604    5285.4255    54.329903 
    8500    5171.4834    166.44821   -2622.8006   -6459.9811    54.313829 
    8510    5248.0566    168.91277   -2625.8637   -7387.7293     54.33803 
    8520    5318.8456    171.19117   -2628.7348   -5022.4373    54.408081 
    8530    5502.6799    177.10802   -2635.2897    512.22317    54.501499 
    8540    5297.1457    170.49275   -2629.3133    9497.1442    54.600641 
    8550    5079.0879    163.47439   -2622.9095    6077.2333    54.686816 
    8560    5135.8641    165.30177   -2625.3265   -1741.8544    54.749497 
    8570    5199.0108     167.3342   -2627.9412   -352.16771    54.793293 
    8580    5073.3739    163.29048   -2624.4555    8995.3775    54.826198 
    8590    5060.8685    162.88798   -2624.5775    15540.006    54.856001 
    8600     5349.868    172.18965   -2634.4145     3923.871     54.90462 
    8610    5401.5245    173.85226   -2636.6499   -6556.8448    54.978592 
    8620    5047.9334    162.47165   -2625.8256   -3410.2039    55.038541 
    8630    4985.4019    160.45903   -2624.3421   -8836.4693     55.04052 
    8640    5202.9262    167.46022   -2631.8661   -6724.0616    54.990915 
    8650     5320.375     171.2404   -2636.1822    2304.4632     54.93257 
    8660    5207.8028    167.61717   -2633.1185    8422.4402    54.895467 
    8670    4910.2677    158.04078   -2624.0554    6225.2846    54.856558 
    8680    5235.1488    168.49733   -2635.0317    537.56802    54.778946 
    8690    5535.5864    178.16715   -2645.2786    2406.9069    54.675374 
    8700    5244.3023    168.79194   -2636.4951    9328.7156    54.584272 
    8710    5102.8939     164.2406   -2632.5488    2936.9051    54.538847 
    8720    5209.5064    167.67201   -2636.5766   -7994.6603    54.556045 
    8730    5436.4577    174.97661   -2644.5308   -12915.426    54.621628 
    8740    5293.1855    170.36528   -2640.5985   -7439.8464    54.704684 
    8750    5110.1898    164.47542   -2635.3785     3504.787    54.779202 
    8760    5395.8584    173.66989   -2645.2751    10704.761    54.833242 
    8770    5709.3946     183.7613   -2656.1571     9007.175    54.864677 
    8780    5612.0986    180.62975   -2653.9074    11100.042    54.881438 
    8790    5349.2172    172.16871   -2646.3736    15174.149    54.892099 
    8800    5191.9687    167.10754   -2642.2275     16547.44     54.91438 
    8810    5167.8863    166.33243    -2642.363    15943.432    54.966777 
    8820    5101.8014    164.20544     -2641.11    10827.678    55.045247 
    8830    5296.5708    170.47424   -2648.2584    3591.1398     55.11893 
    8840    5487.8242    176.62988   -2655.3499    7986.2255    55.164107 
    8850    5259.7799     169.2901   -2648.9506    16698.809    55.173948 
    8860     5018.257     161.5165    -2642.065    19652.563    55.162755 
    8870    5089.5873    163.81232   -2645.2151    11617.496    55.157355 
    8880    5148.0151    165.69286   -2647.9194    2530.6923    55.176205 
    8890    5065.1931    163.02717   -2646.0491   -2584.7049    55.215675 
    8900    4954.3621    159.45999   -2643.2246   -280.08757    55.244566 
    8910    4871.8803    156.80525   -2641.2493    5573.2564    55.237313 
    8920    4956.6387    159.53326   -2644.5998    7470.7627    55.195763 
    8930    4985.4263    160.45981   -2646.1105    1285.2799    55.150901 
    8940    4844.9208    155.93754   -2642.1216   -4566.3416    55.121987 
    8950    4746.1053    152.75708   -2639.3993   -4657.1631    55.096484 
    8960    4896.0304    157.58254   -2644.6438   -771.74108    55.070507 
    8970    5011.9594     161.3138   -2648.7533    3403.3024    55.048125 
    8980    5087.7346    163.75269   -2651.5648    8467.1861    55.036309 
    8990    5003.5676    161.04371   -2649.2167    11863.415    55.042037 
    9000    4843.6766    155.89749   -2644.3942    8755.1325    55.058836 
    9010    4930.0372    158.67707   -2647.4737    590.23358    55.061126 
    9020    5127.6183    165.03637   -2654.1221    4331.5479    55.039012 
    9030    5150.1324    165.76101    -2655.149    11827.845    55.020282 
    9040    5038.3702    162.16385   -2651.8494    17518.348    55.032254 
    9050    5059.2311    162.83528   -2652.8401    15745.507     55.05861 
    9060    4963.3903    159.75057   -2650.0439    13970.321    55.067773 
    9070    4982.2631      160.358   -2650.9506    12557.507    55.046133 
    9080    4907.6468    157.95642   -2648.8066    11614.278    54.992992 
    9090    5182.4941    166.80259   -2657.9385    5235.0002     54.91895 
    9100    5101.8119    164.20578   -2655.6343    3858.4395    54.855649 
    9110    4798.4057    154.44041     -2646.14    5737.4079    54.827365 
    9120     4984.548    160.43155   -2652.4046   -1203.1787    54.820703 
    9130    5135.1881    165.28001   -2657.5216   -4244.7869    54.818291 
    9140    5081.6596    163.55716   -2656.0845    2616.8521    54.820526 
    9150    4916.2677    158.23389   -2651.0532    15578.177    54.846151 
    9160    4856.7994    156.31986   -2649.4097    20801.431    54.910055 
    9170    5014.4874    161.39517   -2654.7646    16640.928    55.014392 
    9180    4961.7818     159.6988   -2653.3178    12616.945    55.146374 
    9190    5095.5398     164.0039   -2657.9135    10634.851    55.264928 
    9200     4866.556    156.63388   -2650.8158    17326.398    55.332407 
    9210    4682.5806    150.71249   -2645.1384    20310.999    55.345111 
    9220    4922.9329    158.44842   -2653.1059    15639.231    55.327371 
    9230    5142.1651    165.50457    -2660.394    12364.725     55.31007 
    9240    5087.0005    163.72906   -2658.8769    21966.456    55.300375 
    9250    4906.3436    157.91448   -2653.3224     25867.87    55.289975 
    9260    4957.4199    159.55841   -2655.2427    13558.253    55.269502 
    9270    5041.0052    162.24867   -2658.2048    3236.1423    55.252452 
    9280    5081.6577     163.5571   -2659.8225    590.72167    55.262308 
    9290    4801.7188    154.54705   -2651.1088    5747.3106     55.31166 
    9300    4728.4955     152.1903   -2649.0358    14445.269    55.388727 
    9310    4870.4991    156.76079   -2653.8822    20185.365     55.46929 
    9320    4805.2107    154.65943   -2652.0252    18170.512    55.539654 
    9330    4835.7963    155.64386   -2653.2574    11518.335    55.601382 
    9340    4831.9066    155.51866   -2653.3512    5524.5357    55.651726 
    9350    5045.7838    162.40247   -2660.4799    6407.4492     55.67795 
    9360    5039.7457    162.20813   -2660.5473    5682.1929    55.679075 
    9370     4787.523    154.09014   -2652.6965    5450.4529    55.664375 
    9380    4740.9515     152.5912   -2651.4548    4312.0488    55.646877 
    9390      4928.22    158.61859   -2657.7388   -676.83353    55.625099 
    9400    4996.5257    160.81706   -2660.2067   -5590.2495    55.591245 
    9410    4908.9289    157.99769   -2657.6767   -11321.464    55.553003 
    9420    4819.2207    155.11036     -2655.09   -14535.988    55.531161 
    9430    4779.0629    153.81785   -2654.1004   -16421.951    55.541431 
    9440    4852.2083    156.17209   -2656.7499   -7878.5184    55.593305 
    9450    5150.0582    165.75862   -2666.6826   -185.30628    55.684928 
    9460    5146.1389    165.63247   -2666.9631    -929.6441    55.788501 
    9470    4882.5517    157.14872   -2658.9332   -6113.3891    55.853522 
    9480    4790.8021    154.19568   -2656.4663   -6111.0166    55.848379 
    9490    4895.1034     157.5527   -2660.3391   -7159.0128    55.770199 
    9500    5071.8367      163.241   -2666.6301   -14875.794    55.642279 
    9510    4826.4797    155.34399   -2659.3844   -10051.882    55.511951 
    9520    4674.3202    150.44662   -2655.1689   -7973.9346    55.424489 
    9530    4825.5914     155.3154   -2660.7942   -12438.523     55.39888 
    9540    4732.2427     152.3109    -2658.589   -16688.002    55.428298 
    9550    4689.8899    150.94775    -2658.085   -16319.999    55.487974 
    9560    4577.0371    147.31549   -2655.3548   -18145.701    55.535213 
    9570    4463.2669    143.65371   -2652.5941   -16696.265    55.538691 
    9580    4612.8749    148.46896   -2658.3605   -6011.6143     55.49613 
    9590    4647.0128    149.56771   -2660.4683   -3172.3824    55.453105 
    9600    4514.3976    145.29939   -2657.2258   -11127.601    55.462471 
    9610    4428.0181     142.5192   -2655.4787   -18074.769    55.545618 
    9620    4450.3094    143.23666    -2657.201   -15952.721    55.689125 
    9630    4702.3396    151.34845   -2666.3895   -11843.541    55.850682 
    9640    4498.8993    144.80056   -2660.9032   -9623.0419    55.975375 
    9650    4336.8782    139.58579   -2656.7024   -10846.266    56.018622 
    9660     4250.736    136.81324   -2654.8756   -13973.074    55.997435 
    9670    4282.4896    137.83525    -2656.757     -15598.2    55.976585 
    9680    4628.5672    148.97403   -2668.7697    -22421.71    56.013258 
    9690    4529.3809    145.78164   -2666.4291   -23210.563    56.118519 
    9700    4144.1192    133.38169   -2654.7769   -17685.437    56.239818 
    9710    4002.4621    128.82235   -2650.8482   -19981.233    56.314923 
    9720    4090.0092    131.64012   -2654.1769   -25666.837     56.33091 
    9730    4394.2666    141.43288   -2664.4304   -23203.062    56.306437 
    9740     4378.711    140.93221   -2664.3178   -12123.603    56.271776 
    9750    4242.4201    136.54558   -2660.2406   -5752.5401    56.258088 
    9760    4457.1139    143.45567   -2667.4025   -3529.3484    56.289148 
    9770    4775.1127    153.69071   -2677.8579   -1158.3547    56.364081 
    9780    4794.1805    154.30442   -2678.6792   -533.69099    56.434883 
    9790    4543.8824    146.24838   -2670.8201    4430.1106    56.446454 
    9800    4336.2725     139.5663   -2664.2762    8384.9852    56.396308 
    9810    4646.1455     149.5398   -2674.3597   -400.16375    56.337898 
    9820    4805.0555    154.65444   -2679.5493    -13446.55    56.309245 
    9830    4571.6189     147.1411    -2672.091   -14346.297    56.307282 
    9840    4395.7143    141.47948   -2666.4544   -6895.5371    56.323754 
    9850    4519.1062    145.45094   -2670.4053   -2545.9733    56.346156 
    9860    4662.9631    150.08109   -2674.9716    -7101.154    56.359365 
    9870    4475.4487    144.04579   -2668.8249   -10562.569    56.360792 
    9880     4367.861      140.583   -2665.2093   -15065.698    56.362182 
    9890    4582.0114    147.47559    -2671.895   -16850.204    56.372979 
    9900     4684.565    150.77636    -2674.927   -19624.634    56.388126 
    9910     4500.902    144.86502   -2668.6992   -21675.991    56.398105 
    9920    4405.7372    141.80207   -2665.2847   -25377.617    56.404034 
    9930    4343.7914     139.8083   -2662.8612   -29407.552     56.43207 
    9940    4396.7023    141.51127   -2664.0448    -31631.29    56.493954 
    9950    4558.9064    146.73194   -2668.6473   -27697.723    56.578182 
    9960    4445.8469    143.09303   -2664.2877    -16151.22    56.667478 
    9970    4342.3968    139.76341   -2660.1668   -10234.446     56.72653 
    9980    4446.2924    143.10737   -2662.6201   -16708.709    56.722629 
    9990    4294.9314     138.2357   -2656.7238    -16124.11    56.656684 
   10000      4209.63    135.49021   -2652.8837   -8743.3016    56.559416 
   10010    4220.0741    135.82636   -2651.9905   -8300.1849     56.47292 
   10020    4479.9276    144.18995   -2658.9846   -15056.441    56.435983 
   10030    4491.5778    144.56492   -2657.8438   -13721.953    56.457021 
   10040    4365.6289    140.51115   -2652.2576   -9953.8453    56.501004 
   10050    4489.7386    144.50572   -2654.7115   -11287.962    56.521462 
   10060    4639.7074    149.33258   -2657.9579   -18685.618    56.492639 
   10070    4687.4641    150.86967   -2657.9496   -27381.673    56.408507 
   10080    4763.6784    153.32269   -2658.9595   -21744.479    56.287689 
   10090    4555.6756    146.62795   -2650.9423    -6166.522    56.161505 
   10100    4516.8425    145.37808   -2648.5346   -4943.4574    56.053503 
   10110    4758.6635    153.16128   -2655.2479   -10846.235    55.980999 
   10120    4651.6548    149.71712   -2650.8094   -13183.476    55.953266 
   10130    4709.7854     151.5881   -2651.8263   -15105.679     55.95822 
   10140    4962.7331    159.72942   -2659.2109   -14007.407    55.969188 
   10150    4570.2138    147.09588   -2645.8853   -1825.7944    55.976765 
   10160    4732.8947    152.33189   -2650.5618   -3867.8247    55.998008 
   10170    5186.4906    166.93123   -2664.6271   -12163.317    56.041339 
   10180     4957.691    159.56713   -2656.7993   -12172.392    56.092077 
   10190    4779.7456    153.83982   -2650.7229   -7380.7572    56.123806 
   10200    4836.4156    155.66379   -2652.2499    743.92048     56.12449 
   10210    4938.8427    158.96048   -2655.2821    7308.9799    56.091728 
   10220     4998.326      160.875   -2656.9784    6445.9645    56.030801 
   10230    5022.7649    161.66159   -2657.6063     2724.058    55.958007 
   10240     4917.441    158.27165   -2654.1137   -466.62207    55.889631 
   10250    4703.6687    151.39123   -2647.1561    6189.1957    55.836214 
   10260    4866.8121    156.64212   -2652.3527    6153.5947    55.792289 
   10270    5209.6627    167.67704   -2663.3748   -7287.4932    55.738788 
   10280    5159.4053    166.05946   -2661.7948   -18132.598    55.674793 
   10290    5102.8402    164.23887   -2660.1117   -18249.827    55.611364 
   10300    4925.2092    158.52168   -2654.5871   -9474.6092    55.543435 
   10310      4652.82    149.75462   -2646.0224   -7165.7901    55.475027 
   10320    4735.9554     152.4304   -2648.9151   -11037.043    55.427447 
   10330    4832.9759    155.55308    -2652.261   -6727.7109    55.409153 
   10340    4772.9951    153.62255   -2650.5584    301.84484    55.398767 
   10350    4962.0666    159.70797   -2656.9049   -3764.5209    55.377436 
   10360     5220.778    168.03479   -2665.5704   -9756.4579    55.351322 
[...]
   27500    921.70978    29.665945   -2864.3188   -14666.121     62.84418 
   27510    915.68093    29.471901   -2864.2668     -11869.9     62.86413 
   27520    901.47571    29.014695   -2863.9539   -8709.7613    62.874543 
   27530    884.15425    28.457191   -2863.5367   -7566.2422    62.860112 
   27540    915.68285    29.471963   -2864.6939   -9082.7352    62.819124 
   27550    952.35485     30.65228   -2866.0295    -12019.07     62.76861 
   27560    902.22411    29.038783   -2864.5745     -13294.7    62.732117 
   27570    854.02788     27.48755    -2863.173   -13095.887     62.72169 
   27580    890.91156     28.67468   -2864.5092   -13105.418    62.734711 
   27590    907.37793    29.204663   -2865.1937   -13231.147    62.759017 
   27600    850.15404    27.362868   -2863.4998    -13875.93    62.779089 
   27610    837.53884    26.956837   -2863.2328   -15497.563    62.787773 
   27620    869.15962    27.974577   -2864.3878   -14719.597    62.796461 
   27630    863.77517    27.801274   -2864.3494   -9751.1465    62.826646 
   27640    850.97873    27.389411    -2864.068   -5025.4847    62.885438 
   27650    877.09117     28.22986   -2865.0397   -4956.0081    62.956825 
   27660    899.75482    28.959307   -2865.9065   -8480.7395    63.018313 
   27670    890.02899    28.646274   -2865.7353    -12272.49    63.056351 
   27680    880.77807    28.348526   -2865.5838   -14206.133    63.066456 
   27690    861.27981    27.720959   -2865.1014   -13503.203    63.049251 
   27700    853.57684    27.473033   -2864.9969   -11738.799    63.009624 
   27710    854.77478     27.51159   -2865.1777   -10826.786    62.955189 
   27720    867.30551    27.914901   -2865.7238   -10839.784    62.892845 
   27730    886.72724    28.540004   -2866.4986    -10950.64    62.831067 
   27740    875.52044    28.179305   -2866.2914   -11106.122    62.781178 
   27750    861.95488    27.742687   -2866.0109   -12042.955    62.747304 
   27760    830.42308    26.727811   -2865.1499    -11849.31    62.721354 
   27770    770.87734    24.811286   -2863.3725   -10342.087    62.692137 
   27780    765.68298    24.644101   -2863.3275   -9834.5004    62.656969 
   27790    837.81679    26.965783   -2865.7711   -10908.943    62.624443 
   27800    870.88733    28.030185   -2866.9632   -10738.729    62.610039 
   27810    861.31089     27.72196   -2866.7886    -10490.33    62.624332 
   27820     863.1534    27.781262   -2866.9883   -10962.011    62.661916 
   27830    854.15042    27.491494   -2866.8441   -11132.823    62.706288 
   27840    819.11945    26.363995    -2865.861   -11295.898    62.743566 
   27850    795.01424     25.58815   -2865.2231   -11596.865    62.769764 
   27860    801.85089    25.808193   -2865.5762   -12575.926    62.787857 
   27870    821.76341    26.449093   -2866.3499   -13868.109    62.799246 
   27880     839.7192    27.027014   -2867.0637   -14751.691    62.799336 
   27890     856.2917    27.560413   -2867.7418   -13842.175     62.78292 
   27900    826.21798    26.592467   -2866.9231   -11654.627    62.752906 
   27910    774.50836    24.928153   -2865.3987   -10162.621    62.721869 
   27920     798.8501     25.71161   -2866.3187   -9894.9478    62.706428 
   27930    834.52886    26.859959   -2867.6093   -10674.873    62.717542 
   27940    804.01017    25.877691   -2866.7706     -12271.5    62.754226 
   27950     763.7321     24.58131   -2865.6098   -12889.379    62.808669 
   27960    766.28388    24.663441    -2865.822   -12688.527    62.869309 
   27970    763.75718    24.582118   -2865.8634    -12172.88    62.920456 
   27980    790.83241    25.453555    -2866.855   -11837.395    62.948157 
   27990    848.48261    27.309071   -2868.8426   -11678.887    62.948532 
   28000    833.10868    26.814249   -2868.4899   -11147.892    62.929706 
   28010    794.30203    25.565227   -2867.3825   -12069.758    62.905933 
   28020    822.61135    26.476385   -2868.4429    -14875.37    62.894414 
   28030    811.24504    26.110551   -2868.2321   -15934.757    62.906949 
   28040    759.34548    24.440124   -2866.7101   -15030.927    62.936759 
   28050    779.43976    25.086874   -2867.5017   -14803.998     62.96109 
   28060    823.36558     26.50066   -2869.0711   -14073.283    62.957882 
   28070    774.27483    24.920636   -2867.6459   -11217.866    62.921673 
   28080    733.92613    23.621982   -2866.4909   -8293.4698    62.864207 
   28090    775.08685    24.946772    -2867.958   -7074.0747     62.80351 
   28100    799.44479    25.730751   -2868.8909   -7388.5619    62.753763 
   28110    753.88222    24.264284   -2867.5701   -9075.1395    62.723463 
   28120    738.86607    23.780978    -2867.224   -11038.002    62.715479 
   28130     782.6509    25.190227   -2868.7747   -13124.518    62.724003 
   28140    765.10353    24.625451   -2868.3526   -15643.892    62.737479 
   28150    728.11129    23.434827   -2867.2955   -17839.011     62.74819 
   28160    781.81341    25.163271   -2869.1602   -18440.254    62.757619 
   28170    827.32283    26.628027    -2870.778   -16732.629    62.773788 
   28180    747.60967    24.062397   -2868.3659   -13851.258    62.802935 
   28190    684.45541    22.029728   -2866.4687   -12425.401    62.844133 
   28200    744.29615    23.955749   -2868.5277   -12598.665    62.891099 
   28210    793.36158    25.534958   -2870.2489   -12854.149    62.937099 
   28220    775.07142    24.946275   -2869.8094   -13450.642    62.977986 
   28230    740.46112    23.832316   -2868.8445   -14608.477    63.010187 
   28240    722.62329    23.258191   -2868.4132   -14956.158    63.033038 
   28250    743.17345    23.919614   -2869.2163   -14401.489    63.054343 
   28260    767.05279    24.688189   -2870.1339   -13928.134    63.081597 
   28270    728.51373     23.44778   -2869.0424   -13700.812    63.106911 
   28280    690.55528    22.226058   -2867.9579   -14254.609    63.112029 
   28290    725.05321      23.3364   -2869.2053   -16145.813    63.086265 
   28300    717.56992    23.095545   -2869.1014   -18477.401    63.033483 
   28310    674.34738    21.704394   -2867.8351   -19265.883    62.965865 
   28320    723.53462    23.287523   -2869.5425    -17754.57    62.899711 
   28330    777.33152    25.019018   -2871.4124   -13742.475    62.852438 
   28340     720.3506    23.185043   -2869.7198   -9485.6374    62.830465 
   28350     668.8527    21.527543   -2868.1924   -8272.7737      62.8244 
   28360    714.10308    22.983962   -2869.7787   -10314.276    62.820018 
   28370    745.80815    24.004414   -2870.9371   -12618.478    62.809671 
   28380    721.35168    23.217264    -2870.291   -12740.019      62.7962 
   28390    720.45361    23.188359   -2870.4049   -11128.232    62.789646 
   28400    747.73516    24.066436    -2871.435   -10416.575    62.799726 
   28410    732.02375    23.560752   -2871.0885   -11514.914    62.828007 
   28420    696.53834    22.418627   -2870.1016   -13638.701    62.864972 
   28430    709.44997    22.834198   -2870.6727   -16141.925    62.891569 
   28440    723.09344    23.273323   -2871.2719   -16935.375    62.886887 
   28450    711.10268    22.887392   -2871.0486   -15683.395    62.842324 
   28460    681.32465    21.928962   -2870.2497   -13950.219    62.770862 
   28470     647.9916    20.856112   -2869.3237   -13105.136    62.700766 
   28480    664.27189    21.380106   -2869.9866   -13422.258    62.657013 
   28490    707.28864    22.764634   -2871.5152   -13897.137    62.647712 
   28500    693.10905    22.308253    -2871.206   -14923.984    62.663069 
   28510    656.74856    21.137962    -2870.175   -16555.729    62.683621 
   28520    685.15243    22.052163   -2871.2279   -17423.066    62.695806 
   28530    704.40667    22.671875   -2871.9944   -16394.848    62.704079 
   28540    653.01635    21.017838   -2870.4812    -14522.85    62.725034 
   28550    651.19482    20.959211   -2870.5563    -13997.47    62.767137 
   28560    698.33386    22.476417   -2872.2138   -14367.045    62.821521 
   28570    692.04497    22.274004   -2872.1569   -13993.653    62.869152 
   28580    678.12055    21.825836   -2871.8554   -13038.925     62.89286 
   28590    687.11057    22.115187   -2872.2972     -12335.7     62.88752 
   28600    653.10202    21.020596   -2871.3533   -12722.894    62.863792 
   28610    619.36758    19.934826   -2870.4062   -14456.764    62.843202 
   28620    650.68524     20.94281   -2871.5516   -16459.495    62.845067 
   28630    659.21275    21.217274   -2871.9661   -16854.305    62.872819 
   28640    638.08943    20.537403   -2871.4217   -15795.644    62.912876 
   28650    661.12724    21.278893   -2872.3018   -13680.257    62.945418 
   28660    664.62762    21.391556   -2872.5578   -10691.254    62.954636 
   28670    643.94683    20.725929   -2872.0331   -9344.2831    62.934672 
   28680    670.11166    21.568064   -2873.0211   -10894.123    62.893116 
   28690     684.7113    22.037965   -2873.6479   -13931.227     62.84659 
   28700    639.51873    20.583407   -2872.3503   -16521.874    62.812355 
   28710    607.05846    19.538648   -2871.4515   -18303.851    62.804538 
   28720    631.81948      20.3356    -2872.394     -18469.9     62.83011 
   28730    620.32841    19.965751    -2872.168   -16190.666     62.88303 
   28740     601.0145    19.344118   -2871.6814   -13313.892    62.944032 
   28750     633.0752    20.376017   -2872.8503    -12108.62    62.989604 
   28760    642.15717    20.668327   -2873.2838   -12716.687    63.003584 
   28770    625.54898    20.133779   -2872.8908   -13523.406     62.98531 
   28780    633.78459    20.398849   -2873.2976   -13761.067    62.949903 
   28790    666.14094    21.440263   -2874.4924   -13853.007    62.918288 
   28800    631.33708    20.320074   -2873.5312   -13518.285    62.904226 
   28810    568.58347      18.3003   -2871.6547   -13692.056    62.906391 
   28820    591.16764    19.027189   -2872.5188   -15389.611    62.911394 
   28830    610.00317    19.633425   -2873.2645    -16144.57    62.906753 
   28840    582.95509    18.762862   -2872.5275   -14975.172    62.890772 
   28850    599.07015    19.281538   -2873.1766   -14006.656     62.87265 
   28860    647.37003    20.836107   -2874.8734   -13794.327    62.865024 
   28870    627.91862    20.210048   -2874.3973   -13965.662    62.874049 
   28880    586.07318     18.86322   -2873.1952   -15199.411    62.894359 
   28890    596.62564    19.202859   -2873.6772   -16987.675    62.911314 
   28900     620.2698    19.963865   -2874.5869   -17941.566    62.910101 
   28910    601.06994    19.345903   -2874.1208   -17441.129    62.886009 
   28920    564.76039    18.177251   -2873.0954   -15612.484    62.848204 
   28930    577.59441    18.590324   -2873.6477   -14548.361    62.813908 
   28940    590.19656    18.995934   -2874.1959   -15002.823    62.797094 
   28950    553.69481    17.821097   -2873.1568   -16113.824    62.801199 
   28960    546.53328    17.590598    -2873.053    -18447.01    62.818506 
   28970    582.09908    18.735311   -2874.3257    -20909.25    62.835724 
   28980    610.09083    19.636247   -2875.3631   -21027.279    62.843171 
   28990    608.53854    19.586285   -2875.4597   -18427.242    62.842118 
   29000    575.06214    18.508821    -2874.529   -14638.197    62.843887 
   29010    564.24475    18.160655   -2874.3226   -12249.544    62.858308 
   29020    588.55565     18.94312   -2875.2526   -12274.777    62.883149 
   29030    565.51826    18.201644   -2874.6603   -13259.198    62.905254 
   29040    521.88789    16.797367   -2873.3923   -13827.909    62.909923 
   29050    545.35736     17.55275   -2874.2791   -14243.947     62.89289 
   29060    574.78081    18.499766    -2875.364   -14389.044    62.866408 
   29070    555.80726    17.889088   -2874.8908   -14080.463    62.850417 
   29080    555.90642     17.89228   -2875.0317   -14129.716    62.855887 
   29090    554.42793    17.844693   -2875.1238   -13855.408    62.877658 
   29100    536.24544    17.259476   -2874.6726    -13143.08    62.902246 
   29110    562.71145    18.111305   -2875.6619   -13473.864    62.920473 
   29120    578.23083    18.610808    -2876.308   -14499.082    62.932125 
   29130    559.21303    17.998705   -2875.8449   -14771.181    62.939655 
   29140    558.30283     17.96941   -2875.9664   -14317.567    62.943149 
   29150    565.03823    18.186194   -2876.3389    -13634.95    62.940156 
   29160    550.76349     17.72675   -2876.0366   -13106.206     62.92626 
   29170     536.5445    17.269101   -2875.7329   -12833.132    62.898709 
   29180    540.22308    17.387499   -2876.0039   -12865.534    62.861586 
   29190    545.11402    17.544918   -2876.3161   -13935.846     62.82549 
   29200    528.87994    17.022411   -2875.9462   -15148.418    62.799979 
   29210    522.04082    16.802289   -2875.8735   -14294.719    62.787237 
   29220    528.78582    17.019382   -2876.2388   -11621.733    62.783361 
   29230    508.20094    16.356842    -2875.719   -9443.0991    62.784538 
   29240    502.93808    16.187453   -2875.6861   -10097.086    62.790288 
   29250    512.16817     16.48453   -2876.1186   -13463.488    62.802439 
   29260    505.83182     16.28059   -2876.0479   -17963.342    62.822517 
   29270    506.15241    16.290908   -2876.1886   -20705.346    62.848313 
   29280    531.05008    17.092259   -2877.1259   -20550.111    62.873597 
   29290    527.54272    16.979372   -2877.1553   -18463.662    62.892182 
   29300     510.1269     16.41883   -2876.7347   -16061.918     62.90117 
   29310    528.06838    16.996291   -2877.4584   -14327.782    62.898934 
   29320     519.0211    16.705097   -2877.3171   -13094.409    62.883336 
   29330    502.10806    16.160738   -2876.9209   -13486.602    62.855037 
   29340    501.65784    16.146247   -2877.0537   -15321.653    62.821308 
   29350    501.60501    16.144546   -2877.1999    -16447.15    62.793455 
   29360    493.07391    15.869967   -2877.0713   -16575.166    62.779777 
   29370    498.82053    16.054926   -2877.4022   -16633.548    62.780869 
   29380    497.00303    15.996428   -2877.4928    -16378.33    62.790361 
   29390    466.79032    15.024009   -2876.6617   -15675.398    62.798781 
   29400    468.06379    15.064996   -2876.8376   -15180.437         62.8 
   29410    485.38243     15.62241   -2877.5323   -14939.804    62.795841 
   29420    467.97853    15.062252   -2877.1074   -15234.676     62.79278 
   29430    457.35572    14.720349   -2876.8934   -16249.333    62.794461 
   29440    492.85776     15.86301   -2878.1686   -16608.905      62.8001 
   29450    506.95039    16.316592   -2878.7665   -15388.101    62.807301 
   29460    472.86525    15.219535   -2877.8135   -13900.227    62.813215 
   29470    463.84104    14.929084   -2877.6619   -13917.577    62.815468 
   29480    479.83937    15.444003   -2878.3209   -15414.632    62.814039 
   29490    444.42601    14.304196   -2877.3208   -16943.813    62.811474 
   29500    422.94167    13.612706   -2876.7546   -18178.634    62.809709 
   29510    468.64763    15.083788   -2878.3551   -18695.431    62.809267 
   29520    481.72309    15.504631   -2878.9151   -17305.438    62.812211 
   29530    460.12902     14.80961    -2878.359   -14940.617    62.821873 
   29540    475.02001    15.288888    -2878.981   -13672.571    62.837145 
   29550    483.78085    15.570862   -2879.4156    -13664.73    62.849403 
   29560    458.28916    14.750392   -2878.7468   -14662.699    62.847621 
   29570    458.38711    14.753545    -2878.901   -16157.374    62.827279 
   29580    454.96183      14.6433   -2878.9447   -16957.801    62.797148 
   29590    412.29039    13.269886   -2877.7141   -16418.063    62.777382 
   29600    407.98319    13.131256   -2877.7032   -15263.075    62.785879 
   29610    471.64478    15.180253   -2879.8901   -14339.201    62.823419 
   29620    480.97862     15.48067   -2880.3462    -13176.87    62.873063 
   29630    418.59077    13.472669   -2878.4849   -12362.175    62.912632 
   29640    423.11932    13.618424   -2878.7671   -13051.548    62.929024 
   29650    465.25862     14.97471   -2880.2725   -14479.108    62.926032 
   29660    426.41065    13.724358   -2879.1721   -15695.555    62.919731 
   29670    385.22148    12.398652   -2877.9785   -16999.121    62.924083 
   29680    412.38142    13.272816   -2878.9809   -17891.336    62.938519 
   29690    432.30709    13.914139   -2879.7567   -17884.344    62.948049 
   29700    422.25456    13.590591   -2879.5689   -17269.736    62.935235 
   29710    422.89563    13.611224   -2879.7259   -16109.484    62.894759 
   29720    429.18357    13.813606   -2880.0687    -14271.16    62.838829 
   29730    420.34572    13.529153   -2879.9265   -12498.392    62.786783 
   29740    413.68318    13.314714    -2879.853    -11844.19    62.750332 
   29750    416.29113    13.398653   -2880.0799   -12627.887    62.729062 
   29760    404.64125    13.023693   -2879.8468   -14126.898    62.716462 
   29770    392.20997    12.623582   -2879.5835   -15510.823     62.70856 
   29780    394.53064    12.698275   -2879.7925   -15769.302    62.708104 
   29790    397.19281    12.783959   -2880.0125   -14497.214    62.721523 
   29800    393.45272    12.663581   -2880.0258   -13180.167    62.749985 
   29810    389.60779    12.539829   -2880.0344    -13183.23    62.783732 
   29820    388.85464    12.515588   -2880.1417   -14613.804    62.807602 
   29830    388.38158    12.500363   -2880.2578   -16413.209    62.812891 
   29840    395.76611    12.738039   -2880.6287   -17000.669    62.804688 
   29850    405.57553    13.053763   -2881.0842   -16100.089    62.797818 
   29860    401.80934    12.932545   -2881.1073   -15319.155    62.805591 
   29870    397.46625     12.79276   -2881.1141   -16011.164    62.830569 
   29880    396.08508    12.748306   -2881.2189   -17502.904    62.863041 
   29890    383.25822    12.335463   -2880.9553   -18436.887    62.886915 
   29900    366.28571     11.78919   -2880.5508   -18069.691    62.889982 
   29910    374.82194    12.063935   -2880.9654   -16700.856    62.872298 
   29920     378.2578    12.174521   -2881.2183   -15831.263    62.845436 
   29930    368.76632     11.86903   -2881.0528   -16638.521    62.823007 
   29940    371.12603    11.944979   -2881.2681   -18078.972    62.811964 
   29950    367.66288    11.833515   -2881.2969   -18307.483    62.810715 
   29960     349.5043    11.249067    -2880.847   -16701.169    62.812772 
   29970    347.63564    11.188923   -2880.9153   -14071.637    62.811584 
   29980    367.73639    11.835881   -2881.6943   -12131.678    62.802964 
   29990    373.18215    12.011157    -2882.009   -12685.362    62.786471 
   30000    358.65469     11.54358   -2881.6808   -15091.155      62.7655 
Loop time of 26.3961 on 1 procs for 30000 steps with 250 atoms

Performance: 49.098 ns/day, 0.489 hours/ns, 1136.530 timesteps/s
99.7% CPU use with 1 MPI tasks x no OpenMP threads

MPI task timing breakdown:
Section |  min time  |  avg time  |  max time  |%varavg| %total
---------------------------------------------------------------
Pair    | 24.687     | 24.687     | 24.687     |   0.0 | 93.52
Neigh   | 1.0328     | 1.0328     | 1.0328     |   0.0 |  3.91
Comm    | 0.10509    | 0.10509    | 0.10509    |   0.0 |  0.40
Output  | 0.45849    | 0.45849    | 0.45849    |   0.0 |  1.74
Modify  | 0.088501   | 0.088501   | 0.088501   |   0.0 |  0.34
Other   |            | 0.02448    |            |       |  0.09

Nlocal:    250 ave 250 max 250 min
Histogram: 1 0 0 0 0 0 0 0 0 0
Nghost:    878 ave 878 max 878 min
Histogram: 1 0 0 0 0 0 0 0 0 0
Neighs:    0 ave 0 max 0 min
Histogram: 1 0 0 0 0 0 0 0 0 0
FullNghs:  8210 ave 8210 max 8210 min
Histogram: 1 0 0 0 0 0 0 0 0 0

Total # of neighbors = 8210
Ave neighs/atom = 32.84
Neighbor list builds = 3000
Dangerous builds not checked




Total wall time: 0:00:26
