
# Define the lattice
variable	lattice_constant equal 3.90855
lattice		bcc ${lattice_constant}
lattice		bcc 3.90855
Lattice spacing in x,y,z = 3.90855 3.90855 3.90855

# Define region
# multiples of lattice spacing
region 		simbox block 0 5 0 5 0 5

# Create Atoms
create_box 	1 simbox
Created orthogonal box = (0 0 0) to (19.5427 19.5427 19.5427)
  1 by 1 by 1 MPI processor grid
create_atoms 	1 box
Created 250 atoms
  Time spent = 0.000210047 secs
mass		1 18.015

# Define Interatomic Potential
pair_style	sw
pair_coeff	* * mW.sw mW
Reading potential file mW.sw with DATE: 2019-02-27

neighbor 	2.0 bin
neigh_modify	delay 10 check no

# Initialize atom velocities
velocity	all create ${temperature} 97287
velocity	all create 300.0 97287

# Pressure computations
compute		total_press all pressure thermo_temp
compute		peratom all stress/atom NULL
compute		p all reduce sum c_peratom[1] c_peratom[2] c_peratom[3]
variable	press equal -(c_p[1]+c_p[2]+c_p[3])/(3*vol)

# Density computations
variable	total_mass equal mass(all)
variable	v equal vol
print 		${total_mass}
print 		4503.75
4503.75
print		$v
print		7463.74905303454
7463.74905303454

variable 	density equal v_total_mass/(v_v*18.015)
print 		${density}
print 		0.0334952311798797
0.0334952311798797

# Displacement computations
compute		disp all msd

# Run equilibration
thermo_style	custom step temp ke pe c_total_press c_disp[4]
thermo		10
dump		1 all atom 10 ${simname}.dump
dump		1 all atom 10 mW_bcc_3.90855.dump


fix 		4 all nvt temp 7000.0 300.0 $(100.0*dt)
fix 		4 all nvt temp 7000.0 300.0 0.10000000000000000555
timestep	0.0005
run		30000
Neighbor list info ...
  update every 1 steps, delay 10 steps, check no
  max neighbors/atom: 2000, page size: 100000
  master list distance cutoff = 6.3065
  ghost atom cutoff = 6.3065
  binsize = 3.15325, bins = 7 7 7
  1 neighbor lists, perpetual/occasional/extra = 1 0 0
  (1) pair sw, perpetual
      attributes: full, newton on
      pair build: full/bin/atomonly
      stencil: full/bin/3d
      bin: standard
Per MPI rank memory allocation (min/avg/max) = 4.73 | 4.73 | 4.73 Mbytes
Step Temp KinEng PotEng c_total_press c_disp[4] 
       0          300    9.6557328   -2311.3538   -1084276.7            0 
      10    303.51711    9.7689336   -2311.4437   -1078959.3 0.0010380223 
      20    316.35866    10.182249   -2311.7855   -1063574.1 0.0041955775 
      30    346.83445    11.163136     -2312.64   -1040324.1  0.009586934 
      40    419.36967    13.497738   -2314.7769   -1012467.5  0.017406329 
      50    580.45744    18.682473   -2319.6539   -981010.75  0.028212135 
      60    873.44533    28.112516   -2328.6011   -941293.08  0.043625916 
      70    1314.4624    42.306994   -2342.0768   -884386.44   0.06695358 
      80    1896.1366    61.028627   -2359.8191   -805729.41   0.10303736 
      90    2603.7314    83.803116   -2381.3533   -709687.13    0.1572727 
     100    3394.4882    109.25424   -2405.3026   -603288.27   0.23489965 
     110    4140.9826    133.28074   -2427.5763      -495179    0.3405739 
     120    4794.6155    154.31842   -2446.6521   -394408.85    0.4768082 
     130    5383.3617    173.26767   -2463.4666   -307642.38   0.64377308 
     140    5813.5817    187.11464   -2475.0481   -237749.86   0.83975613 
     150    6128.6353    197.25488   -2482.8615   -188801.47    1.0608645 
     160     6376.124     205.2205   -2488.4752   -150384.65    1.3027987 
     170    6558.1589    211.07943   -2491.9904   -117319.04    1.5607154 
     180     6596.441    212.31157   -2490.9139   -89645.546    1.8268126 
     190    6558.9593     211.1052   -2487.4717   -61023.599    2.0938232 
     200    6551.1457    210.85371    -2485.043    -36397.86    2.3564603 
     210     6699.467    215.62755   -2487.6587   -26195.796     2.611518 
     220    6851.8247     220.5313   -2490.3971    -17539.89    2.8598348 
     230     7056.358    227.11436   -2494.8431   -9827.0487    3.1011505 
     240    6914.2224    222.53961   -2488.1791   -7282.8007    3.3355225 
     250    6704.1258    215.77749   -2479.4585   -5871.9372    3.5588699 
     260    6675.5807    214.85874   -2476.6504   -140.40568    3.7677344 
     270    6492.7298    208.97355   -2468.8943    16896.697    3.9632172 
     280     6479.428    208.54542   -2466.6298    28938.868    4.1480999 
     290    6778.1717    218.16072   -2474.3556    14214.783    4.3280663 
     300    7017.3443    225.85867   -2480.1024   -11116.463    4.5083977 
     310    7087.1406    228.10512   -2480.4154   -29547.077    4.6885779 
     320    7068.6627    227.51039   -2477.9548    -35297.34    4.8694293 
     330    7025.9105    226.13438   -2474.7869   -35195.335    5.0526009 
     340    7259.3426    233.64758   -2480.5711   -36456.997    5.2322704 
     350    7230.5797    232.72182   -2477.9544    -19560.25    5.4014675 
     360    6961.3466    224.05634   -2467.7028    3034.7287     5.552038 
     370    7088.9484    228.16331   -2470.3216     19715.16    5.6798014 
     380    7065.6191    227.41243   -2468.0747    27710.556    5.7959959 
     390    7396.2088    238.05272   -2477.2771    21263.068    5.9157019 
     400    7906.0658    254.46286   -2492.2681    13901.641    6.0489612 
     410    7740.9296    249.14783   -2485.6504    14425.511    6.1977175 
     420    7466.1568    240.30405    -2475.719    20038.273    6.3535252 
     430    7591.6013    244.34158   -2478.7961    10585.987    6.5028216 
     440    8162.8515    262.72771   -2496.3527   -1674.4824    6.6393586 
     450    7926.9636    255.13548   -2488.0745    3158.9182    6.7713018 
     460     7547.931    242.93602   -2475.4078    12801.402    6.9051844 
     470    7839.1694    252.30975   -2484.4839    7121.1438    7.0536756 
     480     7833.713    252.13413   -2484.1384    136.23016    7.2307066 
     490    7693.2292    247.61255   -2479.6117    3021.4641    7.4243762 
     500    7864.6259    253.12909   -2485.3063    3775.7792     7.604585 
     510    7839.0143    252.30476   -2484.8273    19965.066    7.7572746 
     520    7385.4065    237.70504   -2470.7135    45983.421    7.8902724 
     530    7109.2415    228.81646   -2462.3643    53607.679     8.019323 
     540    7502.1255    241.46173    -2475.649    36243.128    8.1588271 
     550    7737.0733    249.02371   -2483.9662    28652.795    8.3194077 
     560    7675.8026    247.05167    -2482.916    21405.019    8.4934339 
     570    7358.2259    236.83021   -2473.7057    2128.8163    8.6558227 
     580    7443.0372    239.55993   -2477.5466   -867.69042    8.7899975 
     590     7499.874    241.38927   -2480.6087    1093.7854    8.9038477 
     600    7251.0178    233.37963   -2473.8758   -2006.0552    9.0124495 
     610    7455.9668    239.97608   -2481.8434   -6034.5856    9.1188544 
     620    7818.3679    251.64024    -2495.046    264.16255     9.222791 
     630    7736.4522    249.00372   -2494.1044    11268.673    9.3162174 
     640     7639.836    245.89405   -2492.8128    17536.258    9.3921548 
     650    7505.8293    241.58094      -2490.4     4106.805    9.4576915 
     660    7635.5447    245.75593   -2496.5626   -18753.394    9.5273093 
     670    7681.8185    247.24529   -2500.1899    -27399.07    9.6191691 
     680    7259.0513     233.6382   -2488.7143   -16628.015    9.7401303 
     690    7124.1213    229.29537     -2486.45   -5577.2658    9.8746677 
     700    7237.3689    232.94033   -2492.1936   -4453.6467    10.005268 
     710    7129.5062    229.46869   -2490.7718   -9948.1384    10.129767 
     720    7336.0874    236.11767   -2499.5244   -24053.174    10.255579 
     730    7050.0679    226.91191   -2492.3967   -20548.992    10.388308 
     740    6609.8717    212.74385   -2480.1436    542.90035    10.518095 
     750    6733.8893    216.73545   -2485.9302    11998.804    10.641225 
     760    6964.1344    224.14607   -2495.1534    12837.193      10.7668 
     770     6700.957     215.6755   -2488.3799    12743.586    10.889614 
     780    6976.4451     224.5423   -2498.9223   -135.81874    10.990689 
     790    7223.5585    232.49584   -2508.6255   -7718.9161      11.0731 
     800    6814.7143    219.33687   -2497.1364    -3620.141    11.153772 
     810    7026.6724     226.1589   -2505.6076    1561.2225     11.24378 
     820      7331.82    235.98032   -2517.1659    5729.6963    11.352597 
     830    6922.6191    222.80987   -2505.7014    8615.3501    11.475975 
     840     6803.347      218.971   -2503.4908    8489.1888    11.591228 
     850    7090.9797    228.22869   -2514.3929    5415.5699    11.691273 
     860    7137.7138    229.73286   -2517.5803   -3896.1923    11.789124 
     870    6806.3212    219.06673   -2508.5518    -16212.78    11.896495 
     880    6750.2853    217.26317   -2508.3082    -18028.67    12.018268 
     890     7088.844    228.15995   -2520.7924   -13808.448    12.153176 
     900     7024.739    226.09668   -2520.3423   -16877.365    12.295368 
     910    6646.4983     213.9227   -2509.7047    -19888.85     12.43046 
     920    6539.4112    210.47603   -2507.6997   -23369.298       12.546 
     930    6676.3346    214.88301   -2513.4916   -25496.459    12.640465 
     940    6930.9905    223.07931   -2523.0768   -32101.753    12.708787 
     950    6914.2421    222.54025   -2523.9622   -34068.755    12.754049 
     960    6265.3183    201.65413   -2504.3479   -25531.511    12.801665 
     970    6507.3802    209.44508   -2513.3223   -24786.361    12.877845 
     980    7085.7325     228.0598   -2533.1904   -32388.714    12.996825 
     990    6694.1124     215.4552      -2521.8   -25384.158    13.150783 
    1000     6532.213    210.24434   -2517.7443   -14874.409    13.313954 
    1010    6701.3981     215.6897   -2524.3294   -8064.9097     13.47241 
    1020    6464.5176    208.06551   -2517.7875    437.88387    13.624558 
    1030    6181.2446    198.94815   -2509.6412    785.12417    13.767646 
    1040    6143.6237     197.7373   -2509.2914   -5172.6187    13.910709 
    1050     6345.092    204.22171    -2516.558   -12108.206    14.057151 
    1060    6512.0583    209.59565   -2522.6798   -21194.508    14.202378 
    1070    6401.8774    206.04939   -2519.8108   -23893.629    14.342776 
    1080    6648.1518    213.97593   -2528.3909     -27901.4    14.474074 
    1090     6814.608    219.33345   -2534.4161   -29451.583    14.594244 
    1100    6348.6623    204.33662   -2520.0272    -18549.74    14.709625 
    1110    6276.7036    202.02058    -2518.248   -3704.0682     14.82662 
    1120    6835.2901    219.99912   -2536.7677   -1254.6484    14.949968 
    1130    6835.6338    220.01018   -2537.3079    5286.6629    15.085662 
    1140    6602.2471    212.49845   -2530.3241     10176.63    15.236387 
    1150    6719.0334     216.2573   -2534.6008    3349.1733    15.403767 
    1160    6845.3519    220.32296   -2539.2217   -4424.0693    15.589373 
    1170    6336.7728    203.95395   -2523.3321    9628.3302    15.784993 
    1180    6380.4413    205.35946   -2525.2042    9203.4525    15.970607 
    1190    6622.5807     213.1529   -2533.4191   -93.731824     16.13101 
    1200    6520.6388    209.87182   -2530.5401    1455.2813    16.255634 
    1210    5968.9038     192.1138   -2513.1071    14430.061    16.334649 
    1220    5861.5938    188.65994   -2509.8559     6380.008    16.370059 
    1230    6615.3521    212.92024   -2534.2743   -18195.422    16.391991 
    1240    6756.8505    217.47448   -2538.9077   -28848.613    16.432018 
    1250    6651.2031    214.07413   -2535.6218   -27337.777    16.494947 
    1260    6450.1504     207.6031   -2529.2221    -21121.74    16.580329 
    1270    6604.9727    212.58617   -2534.2827   -20553.076    16.690152 
    1280    6506.6391    209.42123   -2531.1357   -16632.043    16.820185 
    1290    6384.9336    205.50404   -2527.2107   -14261.189     16.94511 
    1300    6618.6743    213.02717   -2534.6995   -20408.238    17.044375 
    1310    6835.1975    219.99614   -2541.6094    -25093.91    17.128272 
    1320    6778.8495    218.18253    -2539.745   -17334.897    17.223914 
    1330    6600.1053    212.42951   -2533.9482   -13360.035    17.356586 
    1340    6682.8518    215.09277   -2536.5607   -22256.642    17.514633 
    1350    6973.4224    224.44501   -2545.8811    -32318.65    17.659546 
    1360    6789.1148    218.51293   -2539.9138   -31873.728    17.768026 
    1370     6670.248    214.68711    -2536.101   -15509.398    17.849174 
    1380    6491.6793    208.93974     -2530.34    8720.5901    17.932758 
    1390    6656.9378    214.25871   -2535.6301    7387.4084    18.039897 
    1400    7041.0333    226.62112   -2547.9844   -13442.077    18.172315 
    1410    6770.1698    217.90317   -2539.2647   -23370.493    18.308882 
    1420    6434.5582    207.10125   -2528.4745   -28467.958     18.41902 
    1430    6589.5686    212.09038   -2533.4776    -35327.09    18.487023 
    1440     6482.431    208.64207   -2530.0029   -30675.999    18.511914 
    1450    6136.3278    197.50247   -2518.7788   -19581.915    18.495622 
    1460    6471.0846    208.27688   -2529.4544   -27772.419     18.45421 
    1470    6481.4255    208.60971   -2529.6163   -24124.662    18.430878 
    1480    6096.7904    196.22993   -2517.0045   -4380.9807    18.458066 
    1490    6419.6593    206.62172   -2527.1403    -4209.197    18.531454 
    1500    6746.8819    217.15363   -2537.3434   -19444.148    18.633641 
    1510     6406.225    206.18932     -2526.02   -19991.645    18.744984 
    1520    6130.5674    197.31707   -2516.7707   -17039.066    18.840339 
    1530    6440.6819    207.29834    -2526.327   -27371.158    18.899947 
    1540    6603.9004    212.55166   -2531.0778   -35027.449    18.928028 
    1550    6412.1847    206.38114   -2524.3772   -36891.471    18.951962 
    1560     6322.215     203.4854   -2520.9296   -42697.664    18.990425 
    1570    6552.6765    210.90298   -2527.7483   -50437.762    19.037898 
    1580     6696.782    215.54113   -2531.7397   -41852.627     19.09094 
    1590     6602.736    212.51418   -2528.0462   -35011.479    19.156388 
    1600     6706.989    215.86965   -2530.7473   -35708.815    19.246438 
    1610    6771.9713    217.96115   -2532.1804   -27782.035    19.371368 
    1620    6327.2555    203.64763   -2517.2131    -7423.588    19.513019 
    1630    6113.9014    196.78066   -2509.6744     1079.626    19.632211 
    1640    6955.2564    223.86033   -2536.0587   -12187.595    19.722168 
    1650    6804.2204    218.99911   -2530.3979    -13281.43    19.812062 
    1660    6229.0787    200.48773   -2511.1533   -4211.6602    19.897287 
    1670    6630.7557    213.41602   -2523.3652   -5060.8152    19.957462 
    1680    7108.7623    228.80103   -2537.9523   -7507.1681    20.008154 
    1690     7136.325    229.68816   -2538.0717    -13241.34     20.07639 
    1700    6924.1115     222.8579   -2530.5757   -22306.868    20.164459 
    1710      6560.04    211.13998    -2518.255   -11436.058    20.253241 
    1720    6438.8814     207.2404   -2513.7847    1729.4408    20.327315 
    1730    6458.0185    207.85634   -2513.7957    6099.1381    20.387989 
    1740     6549.874    210.81278   -2516.1229    8113.7813    20.446106 
    1750    6542.8032     210.5852   -2515.2261   -2300.8373    20.490669 
    1760    6810.1696    219.19059   -2523.1734    -15014.53    20.509218 
    1770    6700.1907    215.65084   -2518.9725   -15733.459    20.507272 
    1780    6045.9061    194.59218   -2497.2575   -8946.7677    20.489292 
    1790    6243.6653    200.95721   -2502.9664   -12342.802    20.462617 
    1800    6957.7822    223.94162   -2525.1966   -18916.545    20.455302 
    1810    7103.0036    228.61568    -2529.069   -13969.485    20.494975 
    1820    7013.4727    225.73406   -2525.4944    -6644.527    20.578158 
    1830    6636.3733    213.59682   -2512.7243   -668.69193    20.680591 
    1840     6595.972    212.29648   -2510.8397   -2632.6523    20.790437 
    1850    6976.8044    224.55386   -2522.5132   -10942.201     20.92349 
    1860    7063.6971    227.35057   -2524.7495   -13594.733    21.086239 
    1870     6723.886    216.41349   -2513.3063   -1296.6141    21.260238 
    1880    6794.5067    218.68647   -2515.1476    3843.1738    21.414913 
    1890    6985.7246    224.84097   -2520.8863   -290.05657    21.534457 
    1900    7013.7565     225.7432   -2521.4182    2154.7432    21.631979 
    1910    7042.7283    226.67568    -2522.071    12537.407    21.735119 
    1920    6933.8725    223.17207   -2518.3204    16736.637    21.855353 
    1930    7538.7107    242.63925   -2537.6741    2712.8948    21.976768 
    1940     7482.509    240.83036   -2535.8853   -2630.2101    22.090156 
    1950    6586.4358    211.98955    -2507.134    8283.0539    22.199361 
    1960    6870.0999     221.1195   -2516.4823    3264.3212    22.312253 
    1970    7013.0467    225.72035   -2521.3178    10411.993    22.445447 
    1980    6677.2315    214.91188   -2510.7962    25558.534    22.587581 
    1990     6616.487    212.95677   -2509.1667    22007.143     22.71025 
    2000    6763.0463    217.67389   -2514.2334    11348.075    22.819656 
    2010    6865.4201    220.96887   -2517.9262    14712.257    22.939505 
    2020    6829.4064    219.80975   -2517.2122    17540.079    23.064788 
    2030    7091.3045    228.23914   -2526.1732    12362.317    23.166845 
    2040    7311.8145    235.33643   -2533.9489    8950.3179    23.248779 
    2050    6865.3679    220.96719   -2520.3374    19014.462    23.332325 
    2060    6767.8382    217.82812   -2518.0303    16776.813    23.411953 
    2070     6916.138    222.60127   -2523.7155    14465.704    23.477053 
    2080    6818.4203    219.45615   -2521.5223     17226.84    23.528102 
    2090    7095.1327    228.36235    -2531.499    14492.086    23.562249 
    2100    7143.0836    229.90569    -2534.265    13659.912    23.581494 
    2110    6522.4823    209.93116   -2515.5077    15638.012    23.604864 
    2120      6647.49    213.95462    -2520.746    17050.445    23.649751 
    2130    7098.7592    228.47908    -2536.634    8699.4002    23.724832 
    2140    6605.1623    212.59228   -2522.0969    10080.694    23.814193 
    2150    6695.0714    215.48607   -2526.3515    12811.214    23.909671 
    2160     6994.274    225.11614   -2537.4369    14108.371    24.034225 
    2170    6638.4081    213.66232   -2527.4171    23601.513    24.194825 
    2180    6613.7625    212.86908   -2528.0419    19112.788    24.366335 
    2190    6695.3458     215.4949   -2532.0873     11132.97    24.520531 
    2200    6490.0487    208.88726    -2526.847    7302.8519    24.642817 
    2210    6301.4073    202.81568   -2522.0572     3672.763    24.721734 
    2220    6344.6411     204.2072   -2524.6367   -1478.3723    24.751687 
    2230    6669.3936    214.65961   -2536.2546     -6913.42    24.745865 
    2240    6803.8289    218.98651   -2541.7578   -1198.3984    24.738237 
    2250    6625.5544    213.24861   -2537.1698    6084.5117    24.767843 
    2260    6557.0927    211.04512   -2536.0575    12452.451    24.847934 
    2270    6826.3571     219.7116   -2545.8146    1106.9156    24.961737 
    2280    6977.2105    224.56694   -2551.7818   -6068.4487    25.090182 
    2290    6900.5371    222.09914   -2550.4509   -4116.9208    25.219012 
    2300    6740.9048    216.96125   -2546.4238   -275.05236    25.327743 
    2310    6817.8365    219.43736   -2550.0105    5659.8095    25.401183 
    2320    6625.7456    213.25477    -2544.919    16202.427    25.443642 
    2330    6212.3896    199.95058   -2532.5774    17439.609    25.479718 
    2340    6361.7628    204.75827   -2538.2847    8969.0302    25.544213 
    2350    6294.7285    202.60072   -2536.9557    4398.0023    25.664999 
    2360    5892.7621    189.66312   -2524.7016    1928.7623    25.828068 
    2370    5991.2529    192.83312   -2528.4659    2472.5212    25.986637 
    2380    6071.7861    195.42515   -2531.5476    10156.861    26.103858 
    2390    5991.5253    192.84189   -2529.3472    14433.198     26.18261 
    2400    6166.0615    198.45948    -2535.306    12899.866    26.258515 
    2410      6063.03    195.14333   -2532.2272    6955.9672    26.372835 
    2420    6196.9188    199.45264   -2536.7394   -5233.3936    26.530604 
    2430    6298.1421    202.71059   -2540.1377   -10604.613     26.69708 
    2440    6300.4562    202.78507   -2540.3235   -11407.541    26.834468 
    2450    6334.1943    203.87096   -2541.5062    -17814.95    26.924571 
    2460    6236.3239    200.72093   -2538.4106   -12485.908    26.972412 
    2470    6314.3315    203.23166   -2540.9667    85.489381    26.995995 
    2480    6339.5902    204.04463   -2541.7944    8388.4982    27.021726 
    2490    6271.3612    201.84863   -2539.5816     11764.14      27.0776 
    2500    6500.8909    209.23622   -2546.9488   -6728.9268    27.172799 
    2510    6602.1358    212.49486   -2550.2007   -15132.456    27.290094 
    2520    6016.2161    193.63658   -2531.3103    6517.2015     27.38949 
    2530    5757.6523    185.31451   -2522.9182    15658.792    27.427632 
    2540    6226.8895    200.41727   -2537.8887    6198.9624    27.407551 
    2550    6421.4855    206.68049   -2543.9643    6100.0664    27.389786 
    2560    5889.6379    189.56257   -2526.6082    10864.077    27.434374 
    2570    5966.3782    192.03251    -2528.806    4281.8975    27.546905 
    2580    6820.0942    219.51002   -2555.9813    251.06695    27.685483 
    2590    6699.2866    215.62174   -2551.7383    12003.712    27.803782 
    2600    6448.5181    207.55056   -2543.3923    28110.087    27.867639 
    2610    6594.9111    212.26233   -2547.8587     30920.42    27.883423 
    2620    6622.9572    213.16502   -2548.5193    22281.822    27.901392 
    2630    6585.6714    211.96495   -2547.1163    10962.573    27.959472 
    2640    6497.5059    209.12727   -2544.0971    1973.8316    28.044805 
    2650    6571.4034    211.50572   -2546.3116   -3642.5718    28.120789 
    2660     6577.972    211.71713   -2546.3912     1864.726    28.166245 
    2670    6202.7633    199.64075   -2534.1638    17528.264    28.176981 
    2680    6579.6725    211.77187   -2546.1613    11153.623    28.175484 
    2690    7266.9314    233.89183   -2568.1928    3874.5813    28.200306 
    2700     6985.534    224.83483   -2559.1168    942.19629     28.26471 
    2710    6522.8505      209.943   -2544.3278    2.6274474     28.34353 
    2720    6343.4059    204.16744   -2538.6901    4534.4249    28.397996 
    2730    6329.6338    203.72418   -2538.3772    6282.5632    28.415871 
    2740    6352.4826    204.45958    -2539.245    10021.212    28.413462 
    2750    6354.4185    204.52189   -2539.4344    5560.0322    28.422261 
    2760    6396.0577    205.86208   -2540.9123   -8987.2179    28.473079 
    2770    6440.2579     207.2847   -2542.4745   -10876.282    28.563868 
    2780    6678.2441    214.94447   -2550.2986   -15288.948    28.676576 
    2790     7123.852    229.28671    -2564.918   -24433.514    28.800229 
    2800    6979.3436    224.63559   -2560.6629   -13746.694    28.918154 
    2810    6635.6854    213.57468    -2550.124    2660.3806    29.016867 
    2820     6346.117     204.2547   -2541.3996    5515.7569    29.097058 
    2830    6110.0677    196.65727   -2534.4127    4478.0627    29.160593 
    2840    6216.1176    200.07057   -2538.4549   -1721.5049    29.212199 
    2850    6516.3444     209.7336   -2548.8257   -1047.0464    29.264634 
    2860     6475.418    208.41635   -2548.2991    10073.721    29.335061 
    2870    6328.7511    203.69577   -2544.4383    16270.935    29.428604 
    2880    6256.2523    201.36233   -2543.0559    17532.319    29.529262 
    2890    5994.8062    192.94749   -2535.5812    25631.427    29.620233 
    2900    6287.5662     202.3702   -2546.0069    18367.869    29.693938 
    2910     6670.591    214.69815   -2559.5015    11234.015     29.76892 
    2920    6349.4123    204.36076   -2550.4156     12757.64    29.867373 
    2930    6073.6904    195.48644   -2542.8193    11001.001    29.979545 
    2940    6212.8507    199.96542   -2548.6228    1442.9496    30.089263 
    2950     6359.855    204.69687   -2554.7576    3769.1783    30.185564 
    2960    6381.5564    205.39535   -2556.9458    11599.906    30.263766 
    2970    6197.2913    199.46463    -2552.528    15654.808    30.324473 
    2980    6208.9925    199.84124   -2554.4122    13335.851    30.365413 
    2990    6389.0997    205.63813   -2561.7906    7870.1135    30.392853 
    3000    6036.5631    194.29147   -2551.9653    5644.3607    30.429915 
    3010    6028.5369    194.03314   -2553.1533   -5248.3345    30.485051 
    3020    6406.6303    206.20237   -2566.7834   -19856.146    30.564881 
    3030    6554.6483    210.96644   -2573.0627   -28062.557    30.670472 
    3040    6252.4236     201.2391   -2564.8059   -19146.897    30.772281 
    3050    6020.9767    193.78981   -2558.7117   -1982.3093    30.838903 
    3060    6213.8207    199.99664   -2566.1924    2656.0346    30.867795 
    3070    6420.0323    206.63372   -2574.1093   -1003.0857    30.886203 
    3080     6162.991    198.36065   -2567.0196   -2551.2234    30.917815 
    3090    6059.3909     195.0262   -2564.7886   -948.57374    30.961712 
    3100    5931.0847    190.89656   -2561.6417    4472.2543     31.01549 
    3110     5785.658    186.21589   -2557.8026   -1698.8977    31.085188 
    3120    5947.4047    191.42184   -2563.7528   -12615.309    31.173793 
    3130    5985.4182    192.64533   -2565.6518   -17335.431    31.272689 
    3140    5650.8978    181.87853   -2555.4195   -10078.563    31.371149 
    3150    5872.5384    189.01221   -2563.0023   -2025.8393    31.470579 
    3160    6200.7944    199.57738   -2573.9666   -1832.7377    31.579599 
    3170    5866.0283    188.80267   -2563.5224    4949.1579    31.698475 
    3180    5427.7038    174.69486   -2549.6275    22135.584    31.805016 
    3190    5726.4495    184.31022   -2559.3906    15750.174    31.868957 
    3200    5874.2975    189.06883   -2564.1709   -2391.0345    31.855616 
    3210    5976.5637    192.36034   -2567.4389   -13312.812    31.754265 
    3220    6081.8942    195.75049   -2570.7465   -9890.8188    31.602937 
    3230    6365.0474    204.86399   -2579.7604   -2052.6651     31.46145 
    3240    6641.0733     213.7481   -2588.5642    4230.6162    31.386811 
    3250    6571.5759    211.51127   -2586.2844    2631.7494    31.384678 
    3260    6265.2891    201.65319   -2576.4394   -5257.7963     31.41285 
    3270    5832.8165    187.73373   -2562.5181   -13064.294    31.433243 
    3280     5778.567    185.98766   -2560.7201   -17196.057    31.442516 
    3290    6063.5114    195.15882   -2569.7873   -19139.983    31.476027 
    3300     6032.487    194.16028   -2568.6178   -14166.148     31.56021 
    3310    6024.0537    193.88884   -2568.1614   -5617.0249    31.675077 
    3320    6017.1708    193.66731   -2567.7145    4342.2519    31.778879 
    3330    5919.7692    190.53237   -2564.3138    3081.6746    31.835028 
    3340    6054.0432    194.85408   -2568.3273   -6288.7327    31.834341 
    3350    6323.7199    203.53383   -2576.6711   -10692.178     31.79276 
    3360    6283.1221    202.22716   -2575.0103    594.19013    31.745826 
    3370    6206.6881    199.76707    -2572.204    14220.265    31.719719 
    3380    6417.2284    206.54348   -2578.6554    13638.118    31.722387 
    3390     6275.943     201.9961   -2573.7641    10354.549    31.727826 
    3400    6336.3713    203.94103   -2575.3997     303.8896    31.689645 
    3410    6487.9151    208.81858   -2579.9714    -10352.45    31.621295 
    3420    6511.7918    209.58707   -2580.4516   -11735.976    31.585579 
    3430    6658.1455    214.29758   -2584.9518   -15425.755    31.613823 
    3440     6176.645    198.80011   -2569.2462   -9396.9751    31.682494 
    3450    6129.1051    197.27001   -2567.5515    -5445.635    31.753639 
    3460    6428.8465    206.91741   -2577.0277    3138.6326    31.816708 
    3470    6221.2811    200.23676   -2570.1647    17040.742     31.88151 
    3480    5787.0026    186.25917   -2556.0045    18173.119    31.957176 
    3490    5738.8432    184.70912   -2554.2209    7524.5334    32.035282 
    3500    6144.2044    197.75599   -2566.9719   -7811.5721    32.096008 
    3510    6222.2415    200.26767   -2569.1049   -19408.374    32.144539 
    3520     6261.002    201.51521   -2569.9695   -19648.333    32.198323 
    3530    6247.2018    201.07104   -2569.1356   -16720.994    32.250723 
    3540    5947.2782    191.41777   -2559.0526   -16613.667    32.283848 
    3550    6019.0713    193.72848   -2560.9047   -16871.928    32.288716 
    3560    6299.2322    202.74568   -2569.3879   -14530.324    32.268249 
    3570    6293.7972    202.57075    -2568.629   -7368.8367     32.23676 
    3580    6028.5304    194.03293   -2559.4618    241.70719    32.222054 
    3590    6295.3321    202.62015   -2567.3967   -6440.8011    32.241065 
    3600    6427.8419    206.88508    -2570.906   -18177.665    32.304607 
    3610    6335.7725    203.92176   -2567.1513   -21801.263    32.423364 
    3620    6420.7599    206.65714   -2569.0578   -15998.083    32.583931 
    3630    6685.7234     215.1852   -2576.7067   -12377.021    32.757362 
    3640    6593.1836    212.20673    -2572.816     -10114.5    32.910397 
    3650    6163.1056    198.36434   -2558.0696   -3792.7814    33.014115 
    3660    6039.3683    194.38175   -2553.1639    707.58478    33.048787 
    3670    6250.2306    201.16852   -2558.9138   -3353.0069    33.011476 
    3680    6476.4088    208.44824   -2565.0293   -12396.219    32.933158 
    3690    6370.9934    205.05537    -2560.392   -9608.8669    32.853597 
    3700    6177.8101    198.83761   -2552.8969   -3130.6572    32.791426 
    3710    6361.1753    204.73936   -2557.4656   -2815.5385    32.750872 
    3720    6355.7877    204.56596   -2555.8415   -4365.0369    32.740661 
    3730    6350.8063    204.40563   -2554.2006    -583.1529     32.76069 
    3740    6251.0353    201.19442   -2549.4634    4853.7436     32.79692 
    3750    6434.2367     207.0909    -2553.817   -6415.0736    32.837266 
    3760    6401.8196    206.04753   -2551.1684   -14636.504    32.875666 
    3770    6469.2659    208.21834   -2551.7695   -11551.115    32.909599 
    3780    6650.0969    214.03853   -2556.0266   -5591.5203    32.944027 
    3790     6372.422    205.10135    -2545.574    -8941.934     32.99023 
    3800    6369.3591    205.00277   -2544.0707   -16251.812    33.052631 
    3810    6804.0531    218.99373   -2556.6779   -15689.746     33.12714 
    3820    7043.6658    226.70585   -2563.0571   -5014.6092    33.193356 
    3830    6729.4516    216.59262   -2551.7726    9193.9339    33.228796 
    3840    6449.3198    207.57636   -2541.7782    9959.0972    33.247791 
    3850    6443.3541    207.38435    -2540.706    7671.1441     33.30048 
    3860    6796.5316    218.75164    -2551.276     11049.53    33.419515 
    3870    6723.1133    216.38862   -2548.1814    11194.274    33.581884 
    3880    6622.3257    213.14469   -2544.3426    17461.212    33.732743 
    3890     7008.215    225.56484   -2556.3045    24333.706     33.83978 
    3900    6860.2821     220.8035   -2551.1936    44400.479    33.904047 
    3910    6474.5392    208.38807   -2538.5644    50513.144    33.932967 
    3920    6617.8677    213.00121   -2543.0672    25217.692    33.926365 
    3930    6858.7401    220.75387   -2550.7968    6333.1636    33.893688 
    3940    6704.9327    215.80346   -2545.9243    13618.517    33.860808 
    3950    6643.9375    213.84029   -2544.1412    13245.832    33.853659 
    3960    6900.9571    222.11266   -2552.7256    2216.3018    33.886578 
    3970    6790.1803    218.54722   -2549.5872    835.19493    33.962019 
    3980    6393.6729    205.78532   -2537.3338    8419.8527    34.061631 
    3990     6195.396    199.40363   -2531.4929    11734.951    34.152754 
    4000    6428.3092    206.90012   -2539.5613    8871.3317    34.214862 
    4010    6770.5476    217.91533   -2551.2495    11016.103    34.241563 
    4020    6478.6217    208.51947   -2542.6011    18547.905    34.231466 
    4030    6218.0375    200.13236   -2534.9736    16351.586    34.186974 
    4040      6620.96    213.10074   -2548.8003    9263.2227    34.123386 
    4050    6529.4486    210.15537   -2546.7877    7895.3317    34.068507 
    4060    6109.1713    196.62842   -2534.1825    11823.081    34.056867 
    4070     6277.694    202.05245     -2540.57    9287.1119     34.10847 
    4080    6299.8673    202.76612   -2542.2643    10921.429    34.215104 
    4090    6303.3653     202.8787    -2543.375    20951.919    34.335154 
    4100    6514.5959    209.67733   -2551.2287    24386.871    34.435877 
    4110    6624.1981    213.20496   -2555.9005     20540.87    34.513657 
    4120    6485.1115    208.72835   -2552.6084    10825.778    34.569316 
    4130    6534.0186    210.30246   -2555.4274   -2687.6537    34.606944 
    4140    6285.5033     202.3038   -2548.6886   -6613.5585     34.64505 
    4150    5843.4666    188.07651   -2535.6108    723.70509    34.683121 
    4160    5991.4803    192.84044   -2541.4294   -3804.7809     34.70882 
    4170     6625.817    213.25706   -2562.9499    -22469.52     34.73018 
    4180    6584.0997    211.91436   -2562.7834   -22757.921    34.776216 
    4190    5890.1466    189.57894   -2541.4968   -5294.2084    34.854678 
    4200    6119.5119    196.96124   -2549.8574   -12353.522    34.941953 
    4210    6638.7687    213.67392     -2567.56   -21177.163    35.028226 
    4220    6455.8072    207.78516   -2562.6757   -23453.307    35.110164 
    4230     5908.619    190.17349   -2545.9496   -15466.244    35.178754 
    4240    6028.8439    194.04302   -2550.6315   -6532.3004    35.223742 
    4250    6030.7133    194.10319   -2551.4228    4724.5358    35.247328 
    4260    5688.3054    183.08252   -2541.0028    12270.079    35.271901 
    4270    5818.1904    187.26297   -2545.6873    13809.049    35.329549 
    4280    6329.2242    203.71099   -2562.5935    6932.9301    35.425795 
    4290    6589.6477    212.09293   -2571.4607    5625.6448    35.519584 
    4300    6282.8475    202.21832   -2562.0712    6360.6034    35.578566 
    4310    6246.0344    201.03346   -2561.3655   -461.57509    35.595963 
    4320    6531.7193    210.22846   -2571.0717    -3469.663    35.588501 
    4330    6319.5826    203.40067   -2564.7537   -2934.1673    35.575463 
    4340    6045.1286    194.56716   -2556.4017    1136.1184    35.558159 
    4350    6310.5643    203.11041   -2565.4338    2336.6995    35.545006 
    4360    6342.9668    204.15331   -2566.9617    5650.1702    35.562624 
    4370    6050.0545     194.7257   -2558.0042    8718.9531    35.619501 
    4380    6128.8286    197.26111   -2560.9818    652.49014    35.682569 
    4390    6663.3197    214.46412   -2578.6802   -2708.5472    35.726903 
    4400    6669.8039    214.67282   -2579.4483    5138.7933    35.776325 
    4410    6389.4424    205.64916   -2571.0393    14797.082    35.864195 
    4420    6314.4626    203.23588   -2569.2725    18393.847    35.992109 
    4430      6303.71     202.8898   -2569.5815    14680.285    36.151077 
    4440    6340.3758    204.06992   -2571.4528    12369.084    36.332552 
    4450    6247.5698    201.08288   -2569.1542     11698.26    36.514066 
    4460    6231.1252     200.5536   -2569.3463    5732.4931    36.671786 
    4470    6015.9657    193.62852   -2563.0996    2726.4666    36.791739 
    4480    6324.6341    203.56326   -2573.7339    -10716.49    36.857452 
    4490    6676.6797    214.89412   -2585.8571   -16123.027    36.866134 
    4500    6446.8649    207.49735   -2579.2845   -2252.6135    36.842504 
    4510    6289.3528     202.4277   -2575.1132    3786.2955    36.814969 
    4520    5933.8273    190.98484   -2564.5133   -4287.2628    36.790061 
    4530    5970.4396    192.16323   -2566.5043   -16183.117    36.766669 
    4540    6078.9834     195.6568   -2570.8048   -13521.908     36.74291 
    4550    5819.2122    187.29586   -2563.2154    396.79386    36.713937 
    4560    5499.0586    176.99147   -2553.5748    10713.472     36.67087 
    4570    5855.3599     188.4593    -2565.676   -3437.8459    36.613117 
    4580    5841.1736    188.00271   -2565.8157   -17396.657     36.54535 
    4590    5428.1344    174.70872   -2553.0018   -15131.353    36.473869 
    4600    5917.4073    190.45635   -2569.2311   -21830.257    36.411322 
    4610    6091.6172    196.06343     -2575.29   -28093.973    36.376743 
    4620    5893.2008    189.67724   -2569.3329   -19629.812    36.376167 
    4630    6047.1141    194.63106   -2574.7465   -19320.178    36.408699 
    4640    5964.3274    191.96651   -2572.5148   -24919.896     36.47975 
    4650    5872.1334    188.99917   -2569.9786   -18802.317     36.56679 
    4660    5963.8664    191.95167   -2573.3374   -5183.5179    36.628502 
    4670     6242.989    200.93545    -2582.773   -6745.6072    36.649712 
    4680    5920.5468    190.55739   -2572.8576   -13576.005    36.652808 
    4690    5433.5933    174.88442   -2557.5582   -6872.1854    36.662441 
    4700    6037.7812    194.33067   -2577.4063   -17324.497      36.6823 
    4710    6278.1248    202.06632   -2585.5259   -23529.039    36.721509 
    4720    6219.7969    200.18899   -2584.0928   -18739.897    36.775856 
    4730    6053.7549     194.8448   -2579.2397   -7592.4875    36.825013 
    4740    5740.1872    184.75238   -2569.6178   -5012.7449    36.855248 
    4750    5697.0305    183.36335   -2568.6785    1110.5062     36.86584 
    4760    5810.5281    187.01636   -2572.7418    15654.627    36.875294 
    4770    5975.2437    192.31786   -2578.4552    20924.132    36.899993 
    4780    6013.4091    193.54624   -2580.1011    11846.662    36.934227 
    4790    5985.8143    192.65808   -2579.6454   -2076.0271    36.979849 
    4800    5994.7374    192.94527   -2580.3861   -11357.827    37.044365 
    4810    5978.6769    192.42836   -2580.3389   -15596.871    37.125632 
    4820    5862.4498     188.6875   -2577.0763   -17650.554    37.214592 
    4830    5643.9327    181.65435    -2570.503   -20640.471    37.288903 
    4840    5416.5753    174.33668    -2563.582    -22118.75    37.323981 
    4850    5501.6843    177.07598   -2566.6675   -28301.068    37.331328 
    4860    5646.6548    181.74197   -2571.6315   -27205.514    37.354073 
    4870    5619.1609    180.85706   -2570.9993   -20948.777    37.409568 
    4880    5655.0231    182.01131    -2572.373   -14128.904    37.478818 
    4890    5792.6301     186.4403   -2577.0084   -11234.526    37.544884 
    4900    5595.7079     180.1022     -2570.84   -1583.3971    37.599532 
    4910    5286.9326    170.16403   -2561.0137     6216.552     37.62497 
    4920     5532.888     178.0803   -2568.9803   -4839.6345    37.595815 
    4930    6072.0891     195.4349   -2586.3552   -19268.997    37.515545 
    4940    5934.0239    190.99116   -2581.9097     -15037.9    37.422107 
    4950    5642.2085    181.59886   -2572.5182   -967.65192    37.352706 
    4960    5839.8676    187.96067   -2578.8809    3798.3802    37.318735 
    4970    6092.1094    196.07927   -2586.9797    6604.5223     37.32182 
    4980    6143.5053    197.73349   -2588.6377    12796.947    37.360435 
    4990    6053.8742    194.84864   -2585.8066    9583.9257    37.430179 
    5000    5784.1934    186.16875   -2577.1901    10753.627    37.525593 
    5010    5729.5899     184.4113   -2575.5054    14978.544    37.633972 
    5020    5789.1904    186.32959    -2577.476    18451.883    37.733495 
    5030    5699.7348    183.45039   -2574.6381    21609.257    37.810781 
    5040    5655.5517    182.02832   -2573.2106    22198.364    37.872084 
    5050    6142.4443    197.69934   -2588.8958    20177.816    37.931745 
    5060    6148.8549    197.90567   -2589.1248    14106.656    38.005188 
    5070     5667.233    182.40429   -2573.6657    5680.3802     38.10124 
    5080     5642.444    181.60644   -2572.9182    429.29136    38.205541 
    5090    5763.8743    185.51477    -2576.859    -3858.309    38.307443 
    5100    5562.6703    179.03886   -2570.3441   -6821.8003    38.407608 
    5110    5965.6159    192.00798   -2583.2968   -6296.7485    38.511332 
    5120    6218.9753    200.16255   -2591.4189   -2312.5154     38.62892 
    5130     5979.031    192.43975   -2583.7065    350.78506    38.770501 
    5140    5494.7253      176.852   -2568.1343    4585.9833    38.922874 
    5150    5440.0868    175.09341   -2566.3545     3115.369    39.036951 
    5160    5923.7708    190.66116   -2581.8744   -7125.4043    39.072291 
    5170    5947.2137    191.41569   -2582.5363   -15512.519     39.04831 
    5180    5815.0699    187.16254   -2578.2006   -21219.535    39.029934 
    5190    5824.4391    187.46409   -2578.4402   -21130.376    39.069254 
    5200    5543.1022    178.40905   -2569.2764   -10129.831    39.171816 
    5210     5594.536    180.06448    -2570.796   -8244.5564    39.306653 
    5220      5973.16    192.25079   -2582.8134   -17893.373    39.430969 
    5230    6060.4215    195.05937   -2585.4298   -17647.835    39.513434 
    5240     5975.428    192.32379   -2582.5307   -13738.647    39.549339 
    5250    6007.0031    193.34006   -2583.4052   -3903.2173    39.556252 
    5260    6123.2845    197.08266   -2587.0445     4213.062    39.559588 
    5270    5918.0493    190.47701    -2580.348    5803.7165    39.577304 
    5280    5847.4884    188.20595   -2578.0174    1233.4043    39.603718 
    5290    5910.1403    190.22245   -2579.9888    224.96113    39.625758 
    5300    5629.3804    181.18598   -2570.8973    6892.4251    39.646948 
    5310    5218.9238    167.97511   -2557.5923    18908.441    39.682451 
    5320    5428.8827     174.7328   -2564.1944    11443.752    39.728631 
    5330    6029.2275    194.05537   -2583.3121   -13151.941    39.782845 
    5340    5776.1884    185.91111   -2574.9198   -22667.992    39.853791 
    5350    5284.8047    170.09554   -2558.8467   -20336.882    39.927455 
    5360    5619.4423    180.86611   -2569.3428   -24939.627    39.983582 
    5370    5864.4899    188.75316   -2576.8659   -24060.652    40.020304 
    5380    5719.9633    184.10146   -2571.8323   -18942.822    40.053674 
    5390    5599.4095    180.22134   -2567.5608   -22092.872    40.106469 
    5400    5682.3827     182.8919   -2569.7988   -34401.927    40.183038 
    5410    6059.2253    195.02087   -2581.4657   -43068.035    40.269137 
    5420    6218.8693    200.15913     -2586.14   -26377.411    40.353182 
    5430    5920.5626     190.5579   -2576.1086   -6323.2916    40.435274 
    5440    5904.7404    190.04865   -2575.2151   -5901.9283    40.531968 
    5450    6148.9531    197.90883   -2582.7218   -13136.803    40.657745 
    5460    5806.6987     186.8931   -2571.3464    -15500.07    40.805875 
    5470     5675.208    182.66097    -2566.801   -8748.2697    40.946369 
    5480    5724.8733    184.25949   -2568.0644    -6208.518    41.050458 
    5490    5660.3966    182.18426   -2565.6141   -10332.901    41.108814 
    5500    5754.4335    185.21091   -2568.2676   -13443.874    41.136912 
    5510    5637.6252    181.45134   -2564.0905   -20113.961    41.148275 
    5520    5671.1204    182.52941   -2564.7375   -39445.988     41.14389 
    5530    5928.1443    190.80192   -2572.5593   -52782.887    41.147395 
    5540     5868.754     188.8904   -2570.1607   -53772.837    41.190732 
    5550    5969.8548    192.14441   -2572.9545     -45296.3    41.269428 
    5560    6255.4344    201.33601    -2581.718   -53955.139    41.370539 
    5570    5913.1196    190.31834   -2570.2965   -55586.487    41.502479 
    5580    5572.1385     179.3436   -2558.9608   -47885.096    41.650217 
    5590    5873.5125    189.04356   -2568.3085   -45790.493    41.769207 
    5600    6048.7503    194.68372   -2573.5655   -47347.545    41.823823 
    5610    5847.3373    188.20109   -2566.7199   -47658.851    41.803379 
    5620    5768.5194    185.66427   -2563.8548   -38425.906    41.750094 
    5630    5813.8724    187.12399   -2564.9824   -29425.927    41.737146 
    5640    5749.2055    185.04264   -2562.5697   -28699.999    41.800767 
    5650    5507.5158    177.26367   -2554.4387   -31685.706    41.921242 
    5660    5544.9074    178.46715   -2555.2708   -31662.118    42.043532 
    5670    5752.6742    185.15428   -2561.5451    -30565.18    42.111734 
    5680    5685.0499    182.97774   -2558.9123    -37836.46    42.119427 
    5690    5653.4796    181.96163   -2557.4237   -43007.048    42.119965 
    5700    5884.4106    189.39432   -2564.3798   -39262.998    42.170434 
    5710     5787.288    186.26835   -2560.7517   -20934.648    42.283857 
    5720    5453.3223    175.51941   -2549.4871   -4012.9208    42.425218 
    5730    5877.2877    189.16507   -2562.6188   -9935.1255    42.547427 
    5740    6249.9984    201.16105   -2574.0506   -24788.905    42.633064 
    5750    5737.5343    184.66699   -2557.0227   -23226.943    42.686618 
    5760    5403.6758     173.9215   -2545.7734   -11230.915     42.71935 
    5770    6114.9019    196.81286   -2568.1586   -12653.774    42.740272 
    5780    6282.6678    202.21254   -2572.9932   -4911.4924    42.734214 
    5790    5957.7274    191.75408   -2562.0292    17865.199    42.674842 
    5800    6290.2042     202.4551   -2572.3401    28050.176    42.562902 
    5810    6009.9916    193.43624    -2562.935    27315.171    42.440218 
    5820    5686.6005    183.02765    -2552.203    24339.077    42.353032 
    5830    6222.6605    200.28116   -2569.1716    10836.414    42.313568 
    5840     6499.508    209.19171   -2577.8254    6688.6841    42.327278 
    5850    6096.2724    196.21326   -2564.6971    4700.3109    42.393629 
    5860    5864.9317    188.76738   -2557.1803   -3409.8406    42.494114 
    5870    6274.8292    201.96025   -2570.3874   -14825.744    42.608873 
    5880    6206.2547    199.75312   -2568.2467   -15114.706    42.721344 
    5890    5893.4599    189.68558   -2558.3328   -3588.6151    42.813959 
    5900     5947.946    191.43926   -2560.3017   -919.82366    42.879945 
    5910    6206.1469    199.74965   -2568.9093     6743.866    42.921637 
    5920    6011.4261    193.48242   -2563.0194    20185.071    42.941192 
    5930    5771.6372    185.76462   -2555.7223    19191.245    42.951633 
    5940    6223.1407    200.29661   -2570.7975    1847.1096    42.986694 
    5950    6327.6688    203.66093   -2574.8276   -3283.5494    43.063779 
    5960    6130.2947    197.30829   -2569.2617    -418.9447    43.152402 
    5970     6216.944    200.09717     -2573.01   -3077.3753    43.209845 
    5980    6007.8339     193.3668    -2567.336   -727.24541    43.213295 
    5990    5984.9005    192.62867   -2567.7621    632.08676    43.161586 
    6000    6053.2264    194.82779   -2571.2526    1162.6548    43.087427 
    6010    5985.1914    192.63803   -2570.4473    8946.8589    43.037858 
    6020    6119.7851    196.97003    -2576.295    13502.662    43.017221 
    6030    6026.2225    193.95865   -2574.9101    16402.241    42.990269 
    6040    5816.9053    187.22161   -2569.8089    15464.939    42.939522 
    6050     5952.364    191.58146   -2575.8591    6895.9729    42.885025 
    6060    5957.8896     191.7593   -2577.7659    4390.4103    42.853508 
    6070    5874.6373    189.07976   -2576.7931    9711.4621    42.853409 
    6080    5898.8212    189.85814   -2579.2769    8740.3291    42.882575 
    6090    5582.3346    179.67177   -2570.6919    6942.1941    42.927561 
    6100    5331.6862    171.60446    -2564.009    8724.4734    42.973507 
    6110    5732.0967    184.49198    -2578.229    1762.1361    43.024354 
    6120    5683.7991    182.93749   -2577.9389   -5884.1301    43.097347 
    6130    5188.0412    166.98113   -2563.0549   -8292.5727    43.176415 
    6140    5106.9807    164.37214   -2561.3411   -9343.0723    43.216635 
    6150    5231.9796    168.39532   -2566.1211   -7264.8345    43.202725 
    6160    5262.7047    169.38424   -2567.7481   -3922.2479    43.162531 
    6170     5265.345    169.46922   -2568.3741   -8662.1946    43.127189 
    6180    5241.1587    168.69076   -2568.0319   -13735.439    43.115115 
    6190    5399.6235    173.79107   -2573.4876   -18653.533    43.130132 
    6200    5741.5317    184.79565   -2584.8292   -23820.446    43.153776 
    6210    5625.5131     181.0615   -2581.4076   -26268.041    43.158213 
    6220    5313.3617    171.01467   -2571.6283   -25716.239    43.128528 
    6230    5518.8314    177.62787    -2578.473   -28819.499    43.076994 
    6240     5971.262     192.1897   -2593.2801   -37317.788    43.032833 
    6250    5907.6839    190.14339   -2591.4921   -39734.306    43.014249 
    6260    5713.9125    183.90671   -2585.5527   -39155.822     43.02179 
    6270    5606.9227    180.46316   -2582.4059   -27864.119     43.05311 
    6280    5654.1933     181.9846   -2584.2183   -22630.304    43.107172 
    6290    5811.6508    187.05249   -2589.5911   -21500.897    43.179839 
    6300    5819.0632    187.29107   -2590.1588   -12809.174     43.25383 
    6310    5650.6306    181.86993   -2585.0873   -14035.317    43.299911 
    6320    5442.1551    175.15999   -2578.7054   -24720.213    43.305875 
    6330     5526.987    177.89036   -2581.7483   -25214.154    43.280674 
    6340    5672.0065    182.55793   -2586.7311   -25715.116    43.240979 
    6350    5547.5984    178.55376    -2583.017   -30746.397    43.208286 
    6360    5632.2199    181.27737   -2586.0519   -42556.677    43.201625 
    6370    5580.6129    179.61636   -2584.6972   -43961.354    43.226387 
    6380    5316.6318    171.11992   -2576.4784   -41187.012    43.272546 
    6390    5366.3178     172.7191   -2578.3224   -40003.409    43.323773 
    6400    5733.5434    184.53854   -2590.3892   -34649.877    43.355586 
    6410     5673.358    182.60143   -2588.7073   -20053.782    43.342764 
    6420    5370.9938    172.86961   -2579.2196   -15249.001    43.283602 
    6430    5381.3533    173.20303   -2579.7925    -22258.05    43.218902 
    6440    5457.7999    175.66353   -2582.4449   -25576.489    43.202112 
    6450    5809.4172     186.9806   -2593.9781   -25160.697    43.244025 
    6460    5901.9077    189.95748   -2597.2067   -25255.415    43.333113 
    6470    5724.1798    184.23717   -2591.7734   -20943.945     43.44528 
    6480    5781.5005    186.08208   -2593.9713   -13570.058    43.543493 
    6490    5632.2085      181.277   -2589.5315   -5745.8138    43.604182 
    6500    5588.9013    179.88312   -2588.5217   -6821.1008    43.633894 
    6510    5803.1582    186.77915   -2595.8397   -16525.986      43.6548 
    6520     5928.643    190.81798   -2600.3614   -23428.982    43.676763 
    6530    5841.3003    188.00678   -2598.0943    -21899.72    43.678914 
    6540      5728.03    184.36109   -2595.0561   -26775.237    43.641221 
    6550    5479.1905      176.352   -2587.6818   -25602.799    43.575657 
    6560    5087.2708    163.73776   -2575.6501   -16991.245    43.517472 
    6570    5119.5473     164.7766   -2577.2235   -14542.429    43.511819 
    6580     5265.209    169.46484   -2582.4188   -21300.482    43.600796 
    6590    5036.2154     162.0945   -2575.4935   -22955.781    43.785476 
    6600    4908.4356    157.98181   -2571.7532   -18631.552    44.005508 
    6610    5120.2119    164.79799   -2578.8989   -13957.535    44.196516 
    6620    5021.6594    161.62601   -2575.9754   -5847.9204    44.332247 
    6630    5023.6189    161.68907   -2576.2242    -10190.95    44.408313 
    6640    5382.3695    173.23574   -2587.9231   -15257.138    44.445306 
    6650    5485.3355    176.54978    -2591.351   -4750.6007     44.48764 
    6660    5450.3674    175.42431   -2590.3483    942.21941    44.576854 
    6670    5338.5281    171.82467   -2586.8619     4265.719    44.709657 
    6680    5176.3672    166.60539   -2581.7272    2783.9782    44.842252 
    6690    5185.1256    166.88729   -2582.0505   -12300.819    44.942783 
    6700    5466.7842    175.95269   -2591.1318   -26932.046    45.015824 
    6710    5531.2903    178.02887   -2593.2014   -25900.758    45.092216 
    6720    5307.8198     170.8363   -2585.9908   -16626.115      45.2101 
    6730    5220.9215    168.03941   -2583.1623   -7984.0141    45.385745 
    6740    5315.2152    171.07433   -2586.1175   -3258.3273    45.588176 
    6750    5447.0022    175.31599   -2590.2527   -9894.9515    45.770603 
    6760      5279.17    169.91419   -2584.6958   -15682.583    45.906449 
    6770    5374.7627    172.99091   -2587.5915   -22268.338    45.994058 
    6780    5762.7926    185.47995   -2599.8747       -22725     46.04803 
    6790    5753.3862     185.1772   -2599.3537   -16047.652    46.085982 
    6800    5531.4774    178.03489   -2592.0158   -7444.5394    46.144088 
    6810    5502.4056    177.09919   -2590.9086    1545.0456    46.260618 
    6820    5334.9613    171.70987    -2585.307    4709.3257    46.426244 
    6830    5388.3093    173.42692   -2586.7964    2271.2237    46.593867 
    6840    5457.2085    175.64449   -2588.7482    1000.5236    46.723665 
    6850    5197.9843    167.30116   -2580.0899    5360.5447    46.800658 
    6860    4993.1295    160.70775   -2573.1407    3802.4319    46.837719 
    6870    5049.2584     162.5143   -2574.4869    3128.9082    46.864395 
    6880    5562.9715    179.04855   -2590.4693    6495.3415    46.910449 
    6890    5687.9321    183.07051   -2593.8167    9934.4301    46.991444 
    6900    5716.7992    183.99962   -2594.0766   -3664.7562    47.086201 
    6910     5615.768    180.74785   -2590.1454   -15019.743    47.168526 
    6920     5511.829    177.40249   -2586.1166   -14336.578    47.218509 
    6930    5634.6447    181.35541   -2589.3764    -12177.59    47.216957 
    6940    5569.5714    179.26098   -2586.5502   -13050.759    47.180277 
    6950    5557.2258    178.86363   -2585.4224   -20369.283    47.158658 
    6960     5837.513    187.88489   -2593.6996   -30151.636    47.185701 
    6970    5956.0761    191.70093    -2596.762   -27121.259    47.251566 
    6980    5729.3256    184.40279   -2588.7679   -17951.645    47.326897 
    6990    5350.5698    172.21224   -2575.9281    -16870.08    47.395618 
    7000    5522.7542    177.75413   -2580.8342   -26254.816    47.459759 
    7010    6045.9776    194.59448   -2596.9996   -27681.558    47.528624 
    7020    6214.9068     200.0316   -2601.7866   -18759.876    47.599116 
    7030    5957.8554     191.7582   -2592.9757   -5984.6543    47.676873 
    7040    5757.6486    185.31439   -2586.1038   -2357.4757    47.783091 
    7050    5885.9181    189.44284   -2589.8713   -654.11385    47.932955 
    7060    6063.4294    195.15618   -2595.2843   -2314.6511    48.098575 
    7070    6017.7604    193.68629   -2593.6021   -4200.5411    48.216088 
    7080    5887.9106    189.50697   -2589.3151   -3515.5514    48.268263 
    7090    5813.1034    187.09924   -2586.8839   -10587.971    48.287858 
    7100    5784.6874    186.18465    -2586.024   -15578.917    48.315847 
    7110    5614.4113    180.70418   -2580.6435   -4914.4636    48.386962 
    7120    5737.9084    184.67904   -2584.7656    5262.9797    48.509954 
    7130    6117.4771    196.89575   -2597.2465    10916.182    48.660049 
    7140    5734.4243     184.5669   -2585.2498    14363.367     48.79897 
    7150    5287.9293    170.19611   -2571.2582     8141.018    48.897807 
    7160    5304.4792    170.72878   -2572.1768   -1953.0265    48.951829 
    7170    5387.0335    173.38585   -2575.2167   -13487.391    48.966579 
    7180    5412.2461    174.19734   -2576.4201   -18988.875    48.956734 
    7190    5419.8113    174.44083   -2577.0741   -13641.021    48.938434 
    7200    5545.0432    178.47152   -2581.5357   -6491.6345    48.919174 
    7210    5845.0126    188.12627   -2591.7049   -3784.7706    48.906025 
    7220    5903.5344    190.00984    -2594.195   -8330.2265    48.912364 
    7230    5875.9386    189.12164   -2594.0314   -6291.4439    48.942487 
    7240    5810.0837    187.00205   -2592.7404    -10862.62    48.983581 
    7250    5644.9215    181.68618   -2588.3412   -12109.348      49.0026 
    7260    5343.1986      171.975    -2579.551   -9337.5422    48.980375 
    7270    5442.4681    175.17006   -2583.6987   -7591.2271    48.934208 
    7280    5564.5816    179.10038   -2588.6309   -6972.5528    48.901847 
    7290    5585.5215    179.77434    -2590.351   -4142.8189    48.914834 
    7300      5750.09    185.07111   -2596.7894   -1246.7298    48.989521 
    7310    5563.7121    179.07239    -2591.984    5320.1457    49.110029 
    7320    5297.8346    170.51492   -2584.5825    13672.999    49.216695 
    7330     5393.135    173.58224   -2588.8085    11496.497    49.247262 
    7340    5575.8392    179.46271   -2595.8565    2988.4437    49.188448 
    7350    5655.1692    182.01601   -2599.6552   -5079.9899     49.09417 
    7360    5157.8379    166.00902   -2584.8109   -8247.5383    49.045441 
    7370    5017.5669    161.49428   -2581.3439     -5555.77     49.07155 
    7380    5346.2005    172.07161    -2592.945    1608.4375     49.14478 
    7390    5290.6931    170.28506   -2592.1479    10618.945    49.221267 
    7400     5054.709    162.68973   -2585.4276    14802.196    49.243819 
    7410    5404.8551    173.95946   -2597.5646    10464.103    49.170472 
    7420    5472.6469    176.14139   -2600.5897    5962.6915    49.045677 
    7430    5396.9966    173.70652   -2598.9638    1767.5082    48.949295 
    7440    5547.6018    178.55387   -2604.6282   -3178.8447    48.917525 
    7450    5411.4754    174.17254   -2601.0376   -4091.1694    48.945703 
    7460     5145.347    165.60698   -2593.1993    658.98518    49.008722 
    7470    5138.2112    165.37731   -2593.6127     5649.491    49.075122 
    7480    5424.4409    174.58984    -2603.456   -488.65629    49.127777 
    7490    5346.9354    172.09527   -2601.5596   -2677.7121    49.161279 
    7500    5216.1092    167.88452    -2597.891    1155.6746    49.186758 
    7510    5559.5248    178.93762   -2609.4938   -1482.9848    49.235885 
    7520    5737.2729    184.65858   -2615.7922    1265.8833    49.310309 
    7530    5490.9999    176.73209   -2608.4552    12830.848    49.365904 
    7540    5248.7209    168.93416   -2601.2294    15690.166    49.365811 
    7550    5083.4754     163.6156   -2596.4191    13196.475    49.312283 
    7560    5086.7812      163.722    -2596.973    13043.592    49.238561 
    7570    5296.6599    170.47711   -2604.1362    10604.042    49.184241 
    7580    5515.0966    177.50766   -2611.5776    4526.6188    49.160958 
    7590    5442.3598    175.16657   -2609.6542    3436.2775    49.169206 
    7600    5321.4286    171.27431   -2606.1698    2602.1703    49.199049 
    7610    5321.5881    171.27944   -2606.5798   -2108.6558     49.21395 
    7620    5140.5799    165.45355   -2601.1303   -6077.1493    49.183707 
    7630    4950.3614    159.33122    -2595.318   -8127.3683    49.121151 
    7640    5139.3724    165.41469   -2601.6844    -3367.487    49.076982 
    7650    5176.6968      166.616    -2603.119    5122.0561    49.092082 
    7660    5092.4442    163.90427   -2600.6142    5168.9004    49.160562 
    7670    5021.0101    161.60511   -2598.4809   -6807.0896    49.240423 
    7680    4996.8351    160.82701   -2597.8306    -20050.88    49.295092 
    7690    4879.8489    157.06172   -2594.1363   -21132.642    49.336572 
    7700    4783.2769    153.95348   -2591.0371   -12966.743    49.409979 
    7710    4840.1504      155.784   -2592.8122   -2309.5705    49.527921 
    7720    5021.6208    161.62476   -2598.5314    7950.0795    49.674186 
    7730    5256.4767    169.18378   -2605.9342    11415.927    49.835273 
    7740    5363.0999    172.61553   -2609.1916    4197.2622    49.995892 
    7750    5459.9195    175.73175   -2612.1568   -8135.3135    50.127126 
    7760    5463.4187    175.84437   -2612.1403   -10166.013     50.19769 
    7770    5537.4574    178.22736   -2614.4359   -11031.824    50.201053 
    7780    5539.6152    178.29681   -2614.4619   -12997.819    50.177044 
    7790    5354.6729     172.3443   -2608.5033   -10654.924    50.187762 
    7800    5250.0012    168.97536    -2605.148   -1773.9017    50.278774 
    7810    5303.3647    170.69291   -2606.8864    1916.2801    50.433316 
    7820    5397.9985    173.73877   -2609.9548   -2162.7404    50.577986 
    7830    5535.0117    178.14865   -2614.4233   -9097.7519    50.661098 
    7840    5399.9766    173.80244   -2610.1675   -5390.2573    50.697659 
    7850    5213.3984    167.79727   -2604.2648   -4454.7862    50.732092 
    7860    5400.2362    173.81079   -2610.4186   -7476.0541    50.781891 
    7870    5245.6355    168.83485   -2605.5781    -5788.303    50.845468 
    7880    4970.5273    159.98028   -2596.8391   -4919.1718    50.913338 
    7890     5244.361    168.79383   -2605.7776   -9476.0175    50.968988 
    7900    5311.6872    170.96078   -2608.0551   -13953.555    50.994514 
    7910    5028.9679    161.86124   -2599.0578    -13031.72    50.994692 
    7920     4840.166     155.7845   -2593.0643   -10121.545    51.005153 
    7930     4970.289    159.97261   -2597.2787   -7931.3204    51.064959 
    7940    5370.7511    172.86179   -2610.1893   -6044.0035    51.176333 
    7950    5252.8875    169.06826   -2606.3879   -2304.6903    51.291319 
    7960    5243.0872    168.75283   -2606.0974    -66.87146     51.34027 
    7970    5393.3346    173.58866   -2610.9622   -1644.2053    51.294743 
    7980    5534.3069    178.12596   -2615.5572   -5987.2036    51.193885 
    7990    5673.4139    182.60323   -2620.1639   -158.48661    51.124664 
    8000     5514.737    177.49609   -2615.2654     9040.959    51.139276 
    8010    5155.1245    165.92168   -2603.9379    8169.4889     51.21287 
    8020    5276.2037    169.81871   -2608.1278    4716.3825    51.299836 
    8030    5544.6465    178.45875   -2617.1138    5045.1214    51.366042 
    8040    5622.5146      180.965   -2620.0738    7709.5778    51.399601 
    8050    5348.9748    172.16091     -2611.82     8068.422    51.412525 
    8060    5211.5448    167.73761   -2608.0094     2101.321    51.420225 
    8070    5523.0169    177.76259     -2618.79   -5470.8837    51.439911 
    8080    5282.8538    170.03275   -2611.9168   -7156.5375    51.475364 
    8090    5031.9961     161.9587   -2604.7524   -10146.541    51.490191 
    8100    5276.3447    169.82325   -2613.6534   -19200.737    51.445727 
    8110    5286.8243    170.16054    -2615.144   -24254.341    51.349681 
    8120    5201.8967    167.42708     -2613.67   -27760.974    51.241731 
    8130    5119.1123     164.7626   -2612.3543   -23850.855    51.165731 
    8140     5001.168    160.96647   -2609.9383   -21395.405    51.150251 
    8150    4959.0043     159.6094   -2609.9955   -16922.834    51.199099 
    8160    4807.6047    154.73649    -2606.512   -12912.818     51.28445 
    8170    4721.8851    151.97754   -2605.0805    -8565.516     51.35796 
    8180    4963.3727       159.75   -2614.1607   -14280.488    51.394252 
    8190    5118.0634    164.72884    -2620.482   -22194.251    51.393972 
    8200    4953.7347    159.43979   -2616.4748   -16329.725    51.362732 
    8210    4903.1969     157.8132    -2616.057    -6894.637    51.318453 
    8220    4977.4492    160.20307   -2619.5925   -8883.7172    51.300437 
    8230    4956.0417    159.51405   -2619.9931   -15270.223    51.324757 
    8240    4729.8926    152.23527   -2613.6758   -4446.0586    51.370646 
    8250    4964.6267    159.79036   -2622.1117     1574.066    51.408487 
    8260    5332.3362    171.62538   -2634.8457   -7312.8943    51.426405 
    8270    5025.8572    161.76112    -2625.818   -13064.629    51.427585 
    8280    4820.9371     155.1656   -2619.9668   -21977.512    51.412108 
    8290    4996.2406    160.80788   -2626.2919   -29876.461      51.3908 
    8300     5058.724    162.81896   -2628.9356   -27593.575    51.379362 
    8310    5095.1191    163.99036   -2630.6989   -21691.496    51.355127 
    8320    5225.8477    168.19796   -2635.4902    -16139.48    51.274409 
    8330    5098.8133    164.10926   -2631.9541   -12270.393    51.139132 
    8340    4949.9796    159.31893   -2627.6698   -15387.185    51.002021 
    8350    4963.3462    159.74915   -2628.5623   -18022.785    50.917125 
    8360    4974.9581    160.12289   -2629.3538   -14414.817    50.914456 
    8370    4964.2465    159.77813   -2629.3804   -11386.696    50.984668 
    8380    5074.2924    163.32004   -2633.2751   -13637.549    51.083196 
    8390    5017.8748    161.50419   -2631.7803    -13330.48    51.173338 
    8400     4930.768     158.7006   -2629.2577   -8292.0835    51.240214 
    8410    5084.7849    163.65775   -2634.4881   -4130.7233    51.268709 
    8420    5028.1963     161.8364   -2632.9086    2103.2354    51.258966 
    8430    5038.8788    162.18022   -2633.4736    474.35073    51.249731 
    8440    5167.6053    166.32339   -2637.8472    -4275.424    51.287245 
    8450    4966.6139    159.85432   -2631.5738    -16475.03    51.373439 
    8460    4890.2996    157.39809   -2629.3034   -29488.903    51.471259 
    8470     4796.922    154.39266   -2626.4446   -28232.753    51.547937 
    8480    4576.5094    147.29851   -2619.4315   -20113.159    51.597421 
    8490      4513.08    145.25698   -2617.4058   -21944.623    51.620888 
    8500    4571.5428    147.13865   -2619.2104   -24026.216    51.623209 
    8510     4813.976    154.94155   -2626.8744   -22948.819    51.618478 
    8520    4873.6071    156.86083    -2628.592   -15151.343    51.627162 
    8530    4857.0344    156.32742   -2627.8161   -13234.639    51.656901 
    8540    5020.3937    161.58527   -2632.8146   -27619.479    51.700383 
    8550    4936.4656    158.88398   -2629.8096   -40440.479    51.736944 
    8560    4860.0103     156.4232   -2627.0401   -41636.051    51.744093 
    8570    4782.6212    153.93237   -2624.1989   -34085.107    51.713295 
    8580    4865.3909    156.59638   -2626.4674   -18621.683    51.654532 
    8590    5138.2843    165.37967   -2634.8188   -2027.6368    51.587096 
    8600    5128.6865    165.07075   -2634.0457    1695.6006    51.515963 
    8610    4889.1095    157.35978   -2625.8733   -7268.7451     51.44054 
    8620    4977.8243    160.21514    -2628.258   -18088.953    51.357308 
    8630    5270.0426    169.62041    -2637.166   -25105.554     51.26184 
    8640    5081.0298    163.53689    -2630.568   -20839.809    51.164394 
    8650     4676.394    150.51337   -2617.0391   -4253.8716    51.081056 
    8660     4842.606    155.86303   -2621.8726   -6913.6796    51.016701 
    8670    5063.9303    162.98653   -2628.3949   -21282.052    50.972816 
    8680    4944.2294    159.13386   -2623.8948   -26348.826    50.976379 
    8690    4964.0066    159.77041   -2623.8812   -21379.441    51.039193 
    8700    5039.3041    162.19391   -2625.6074   -10065.942    51.121481 
    8710    5129.9378    165.11103   -2627.8012    -362.8359    51.178274 
    8720    5028.9497    161.86065   -2623.8072    3358.5352    51.179581 
    8730    4925.1587    158.52006   -2619.7215    1981.9479    51.127575 
    8740    4888.7636    157.34865   -2617.7784   -3725.3242    51.061793 
    8750     4959.897    159.63814   -2619.2508   -9647.6406      51.0187 
    8760     5123.079    164.89027   -2623.6384   -11091.229    51.003828 
    8770    5226.0936    168.20588    -2626.052   -3219.5508    51.000064 
    8780    5257.5223    169.21743    -2626.162    8153.0468    50.995348 
    8790    5170.0369    166.40165   -2622.4632    13154.255    51.005092 
    8800    5019.1794    161.54619   -2616.7441    10712.282    51.043521 
    8810    5149.1574    165.72963   -2620.0686    6899.7453    51.118525 
    8820    5430.1375    174.77319   -2628.2306     420.3603    51.227865 
    8830    5426.0952    174.64309   -2627.2272   -3648.6286     51.34603 
    8840     5269.293    169.59629   -2621.3788   -3260.2154    51.438735 
    8850    5216.4708    167.89616   -2618.9293    2482.6134    51.504784 
    8860    5466.7352    175.95112   -2626.2714    5428.5623    51.563793 
    8870    5334.9727    171.71024   -2621.3468    2179.5352    51.627216 
    8880    4989.7329    160.59843   -2609.6018    3264.7893    51.710928 
    8890     5437.592    175.01312   -2623.4389   -6253.9132    51.830389 
    8900    5678.8129      182.777   -2630.6091   -17734.547    51.965665 
    8910    5329.9912     171.5499   -2618.8685    -15069.06    52.081263 
    8920    5295.6426    170.44437   -2617.3582    -7308.287    52.170944 
    8930    5347.5314    172.11445   -2618.6555    3182.9421    52.247032 
    8940    5261.9663    169.36047   -2615.5646    7371.5287    52.304507 
    8950    5325.2896    171.39858   -2617.3108   -9846.2794    52.352888 
    8960    5440.4108    175.10384    -2620.776   -21914.111    52.420895 
    8970     5256.071    169.17072    -2614.636   -12321.402    52.511876 
    8980    5277.6317    169.86467   -2615.1874   -6023.3031    52.600413 
    8990    5484.2204    176.51389   -2621.7422   -3926.4689    52.653528 
    9000     5318.801    171.18974   -2616.3867    5664.3645    52.648038 
    9010    4983.4598    160.39652   -2605.5907     12257.29    52.599565 
    9020    5278.7646    169.90114   -2615.1504     862.5088    52.556418 
    9030    5440.1321    175.09488   -2620.4446   -13173.731    52.554068 
    9040    5075.4977    163.35883   -2608.8593   -13816.798    52.581391 
    9050    4960.2551    159.64966   -2605.3493   -14218.071    52.598247 
    9060    5215.2301    167.85623    -2613.817     -13974.8    52.578336 
    9070    5171.9944    166.46466   -2612.7397    -6800.014    52.501366 
    9080    5071.2664    163.22265   -2609.9032   -4068.5121    52.373008 
    9090    5117.5849    164.71344   -2611.8677   -4785.5147    52.245742 
    9100    5432.4146    174.84648   -2622.6345    -5936.901    52.174429 
    9110    5303.4207    170.69471   -2619.2792   -12063.015    52.174302 
    9120    5001.1474    160.96581   -2610.4689   -8951.5571     52.21006 
    9130    5193.6467    167.16155   -2617.7266   -3033.1452    52.221993 
    9140    5482.8293    176.46912   -2628.3609   -1282.4168     52.18855 
    9150    5112.9313    164.56366   -2617.9221    4570.9981    52.136547 
    9160    4923.7517    158.47477    -2613.371    10829.239    52.091098 
    9170    4929.1696    158.64915   -2615.1462    10307.295    52.057366 
    9180    4982.8433    160.37668   -2618.5263    6419.3764    52.037399 
    9190    5179.8066    166.71609    -2626.588    2437.2271    52.045052 
    9200     5528.449    177.93742   -2639.6709   -3336.2157    52.070303 
    9210    5532.5169    178.06835   -2641.8062   -6066.8953     52.08704 
    9220    4911.2149    158.07126   -2623.6527   -7043.7989    52.087262 
    9230      4878.42    157.01573   -2624.2412   -6792.6311    52.069395 
    9240    5151.4013    165.80185   -2634.6364   -10335.364    52.037188 
    9250    5022.2489    161.64498   -2631.9804   -12707.558    51.995896 
    9260     4912.029    158.09747    -2629.809   -7781.7268    51.950276 
    9270    4693.6621    151.06916   -2623.9859    1182.3147    51.906252 
    9280    4722.6562    152.00235   -2625.9665    1069.4044    51.872247 
    9290    4928.0466    158.61301   -2633.5644   -4814.0918    51.872495 
    9300     4771.902    153.58737   -2629.4218   -7135.4683    51.919484 
    9310    4742.7046    152.64763   -2629.2695   -11038.268    51.982542 
    9320    4899.5711     157.6965   -2635.0593   -13757.358    52.034442 
    9330    4789.7204    154.16087   -2632.1986   -6554.0328    52.082919 
    9340    4763.2852    153.31003   -2631.9474    -3688.838    52.137336 
    9350    5091.9224    163.88747   -2643.1347   -14344.276    52.199658 
    9360    5103.4732    164.25925   -2644.1031   -16376.227    52.271155 
    9370    5051.5478    162.58799   -2643.0417   -16909.077    52.349955 
    9380    4998.9796    160.89604   -2641.9612   -19126.697    52.419745 
    9390    4713.1077    151.69503   -2633.3373   -14611.161    52.453815 
    9400    4543.2736    146.22879   -2628.3581   -1766.5883    52.432412 
    9410    5076.9546    163.40572   -2646.0354    4979.9518    52.373719 
    9420    5161.5262    166.12773   -2649.2871    6617.1531     52.33602 
    9430    4709.7885     151.5882   -2635.2365   -3698.7935     52.35836 
    9440    4835.2633     155.6267   -2639.7718   -19555.333    52.424448 
    9450    4820.6473    155.15627   -2639.7717   -16520.952    52.495814 
    9460    4651.1369    149.70045   -2634.7414   -5490.4816    52.545889 
    9470    4795.3966    154.34356   -2639.7927    1570.1497    52.574852 
    9480    5029.9945    161.89428    -2647.751    10256.926    52.595387 
    9490    5142.0281    165.50017   -2651.8002    12621.148    52.638128 
    9500    5125.5516    164.96986   -2651.7384    11981.173    52.752299 
    9510     5315.974    171.09875   -2658.4223   -3276.2762     52.93681 
    9520    5134.5632     165.2599   -2653.1822   -12654.648    53.119205 
    9530    4875.6182    156.92556   -2645.4527   -7178.6621    53.235462 
    9540    5018.5419    161.52567   -2650.6825    5478.9356    53.289574 
    9550    5092.3683    163.90183   -2653.7173    22583.686    53.314928 
    9560    5106.4187    164.35405   -2654.8607    28855.226    53.344879 
    9570    5120.9871    164.82294   -2656.0858     15101.03     53.41493 
    9580    4890.7017    157.41103   -2649.4014    858.13985    53.531803 
    9590    5108.0218    164.40565   -2657.1944   -9552.6165    53.664304 
    9600    4804.1016    154.62374   -2648.1889   -8923.7771    53.770158 
    9610    4398.0628    141.55506   -2635.8237    3241.4141    53.834675 
    9620    4443.1572    143.00646   -2637.8859    6949.2937    53.895753 
    9630    4941.2261     159.0372   -2654.5327   -547.30073    53.988171 
    9640    5098.7558    164.10741   -2660.2586   -5595.1881    54.099931 
    9650    4731.0856    152.27366   -2649.0612    -3516.734    54.192549 
    9660    4717.6934    151.84262    -2649.233   -6505.7602    54.247227 
    9670    5027.0944    161.80094   -2659.8185   -11017.542    54.258147 
    9680      5042.61    162.30032   -2660.9634   -7431.8992    54.223804 
    9690    4982.6765    160.37131   -2659.7041   -3111.5574    54.154877 
    9700    4919.3809    158.33409   -2658.3681   -12107.987     54.07099 
    9710    4556.8766    146.66661   -2647.3326   -15109.249    53.982618 
    9720    4666.0966    150.18194   -2651.4488   -18680.711    53.883996 
    9730    4934.4141    158.81795    -2660.698   -23182.332    53.789874 
    9740    4763.4344    153.31483   -2655.7817   -15380.698    53.732441 
    9750    4748.9577    152.84889   -2655.8965   -13537.789    53.721895 
    9760    4839.7435     155.7709   -2659.3829   -13023.361     53.75385 
    9770    4935.9982    158.86893   -2663.0604   -7753.1265    53.807185 
    9780    4914.2212    158.16802   -2662.9476   -2193.8673    53.850609 
    9790     4925.932    158.54495   -2663.9256   -5435.4927    53.865978 
    9800    4903.9511    157.83747   -2663.8399   -10830.775    53.859443 
    9810    4781.8936    153.90896   -2660.5043    -13339.34    53.856341 
    9820    5027.9166     161.8274   -2669.0563   -13484.436    53.862674 
    9830     5095.666    164.00796   -2671.8941   -7958.7865    53.853879 
    9840    5044.3118    162.35509   -2670.9509   -4588.7266    53.826734 
    9850    4864.1751    156.55725   -2665.8678   -5122.0153     53.81842 
    9860    4705.8461    151.46131   -2661.4614   -8647.6335    53.860037 
    9870    4646.5179    149.55179   -2660.2214   -15086.336    53.940383 
    9880    4422.2283    142.33285   -2653.5918   -10193.709    54.033801 
    9890    4537.2344    146.03441   -2657.8298   -3272.9958    54.106241 
    9900    4849.9306    156.09878   -2668.4347   -1007.5945    54.131002 
    9910    4724.5367    152.06288   -2664.9062   -2643.0779    54.110269 
    9920    4708.3615    151.54227   -2664.8908   -8308.6762    54.058224 
    9930    4705.7566    151.45843   -2665.2895   -10933.211    53.999932 
    9940    4625.2369    148.86684   -2663.1484   -10496.632    53.962424 
    9950    4624.4659    148.84202   -2663.5477    -12305.82    53.964223 
    9960    4779.6846    153.83786   -2668.9459   -13900.957    54.030986 
    9970    4889.5154    157.37285   -2672.9112   -12852.505    54.164307 
    9980    4460.7716    143.57339   -2659.4964   -5088.3496    54.324958 
    9990    4218.1301    135.76379   -2652.0131     322.6686     54.45258 
   10000    4311.0739    138.75526   -2655.2519     1117.539    54.508398 
   10010    4550.1595    146.45042   -2663.1364   -2632.4076     54.49144 
   10020    4713.5189    151.70826   -2668.5634   -4215.4647    54.437192 
   10030    4607.9742    148.31123   -2665.3052   -3107.2322     54.40102 
   10040    4634.6602    149.17014   -2666.2942   -10401.364    54.427824 
   10050    4678.9792    150.59658   -2667.8386   -13384.482     54.52498 
   10060    4569.9251    147.08659    -2664.403   -6624.5486    54.653154 
   10070    4826.2391    155.33625   -2672.7391     1050.728    54.756554 
   10080    4928.0493    158.61309   -2676.1055    3190.6945    54.801164 
   10090    4746.9421    152.78401   -2670.3762    3263.3414    54.792495 
   10100    4694.1528    151.08495   -2668.7995   -512.35117    54.762062 
   10110     4532.967    145.89706   -2663.7124   -4524.4097     54.74405 
   10120    4368.1639    140.59275   -2658.4706   -4523.9474    54.751214 
   10130    4492.4019    144.59144    -2662.496     -7148.57     54.76857 
   10140    4589.2433    147.70836   -2665.5974   -6546.8357    54.750638 
   10150    4476.7202    144.08671   -2661.9253   -912.52604    54.655445 
   10160    4399.5761    141.60377   -2659.3528    913.45313    54.495275 
   10170    4514.7668    145.31127   -2662.9319     2398.393    54.334818 
   10180    4544.4398    146.26632   -2663.7039    7553.5048    54.233794 
   10190    4505.1772    145.00262   -2662.2113    5247.9428    54.190473 
   10200    4649.0818    149.63431   -2666.5795   -8160.8656    54.164116 
   10210    4630.3079    149.03005   -2665.6619   -6628.8485    54.134355 
   10220    4561.5902    146.81832   -2663.0925    6761.0197    54.090492 
   10230    4867.7761    156.67315   -2672.5687    5438.5234    54.032557 
   10240    4725.3584    152.08933   -2667.5415   -2741.4135    53.990593 
   10250    4561.9079    146.82855   -2661.8255   -6004.9856    54.001827 
   10260    4767.1022    153.43288   -2667.9344   -9240.7985    54.087138 
   10270     4759.942    153.20243   -2667.1224    -12556.07    54.229674 
   10280    4744.4086    152.70247   -2666.0125   -17103.065    54.379754 
   10290    4545.0753    146.28678   -2658.9239   -12558.384    54.496022 
   10300    4493.4548    144.62533   -2656.5334   -3518.6207    54.557477 
   10310    4470.3436    143.88148   -2654.9543    6279.9331    54.568262 
   10320     4400.103    141.62073   -2651.7391    14704.514    54.564275 
   10330    4631.3322    149.06302   -2658.1061    11012.986    54.574972 
   10340    4733.7057    152.35799     -2660.16     4450.359    54.605803 
   10350    4495.2671    144.68366    -2651.169    8923.9647    54.644803 
   10360    4641.2854    149.38337   -2654.5017    12392.087    54.688356 
[...]
   27500    896.11321    28.842099   -2858.1321     -13294.2    59.453079 
   27510    907.06051    29.194447   -2858.6378   -12457.419    59.500594 
   27520    880.47929    28.338909   -2857.9297   -9550.3087    59.538766 
   27530    889.18232    28.619023   -2858.3571   -8329.3756    59.548859 
   27540    877.43008    28.240768    -2858.122   -8418.4076    59.532763 
   27550    874.88244     28.15877   -2858.1772   -8742.5805    59.510549 
   27560    930.57519    29.951285   -2860.1129   -9054.3087    59.501944 
   27570    962.59225    30.981779   -2861.3009   -7519.2341    59.510138 
   27580    917.85005    29.541716   -2860.0251   -5420.0858    59.521654 
   27590    878.02112    28.259791   -2858.9034   -6254.7584    59.517798 
   27600    883.07942    28.422596    -2859.226   -9141.7721    59.487349 
   27610    861.44968    27.726427   -2858.6826   -11467.222    59.433569 
   27620     848.9043    27.322644   -2858.4262   -13035.588    59.372865 
   27630    830.52576    26.731116   -2857.9719    -12146.39    59.326324 
   27640    849.46403    27.340659   -2858.7111   -8739.4847    59.309359 
   27650    899.04615    28.936498    -2860.443   -7332.7849    59.323006 
   27660    877.82946    28.253623   -2859.8964    -9062.884    59.354198 
   27670    866.90943    27.902153   -2859.6812   -11798.667    59.383037 
   27680     887.4088    28.561941   -2860.4809   -13897.563    59.391795 
   27690    867.18607    27.911057   -2859.9726   -14267.179    59.375481 
   27700    811.65451     26.12373   -2858.3172   -12675.969     59.34256 
   27710    830.02661    26.715051   -2859.0351   -10897.543    59.303358 
   27720    860.19551     27.68606   -2860.1353   -9862.5442    59.264734 
   27730    813.87917    26.195333    -2858.767   -8303.9027    59.233247 
   27740    817.43928    26.309917   -2858.9961    -7253.647    59.217395 
   27750     910.4529    29.303633    -2862.115   -7139.2131    59.223108 
   27760    939.15755    30.227515   -2863.1826   -6623.8536    59.245011 
   27770    874.14327    28.134979   -2861.2439   -6591.2847    59.267019 
   27780    820.52554    26.409251   -2859.6655   -7770.2083     59.27305 
   27790    857.47776    27.598587   -2861.0043   -10022.605    59.256689 
   27800    873.44834    28.112613   -2861.6758   -11633.993    59.224796 
   27810    822.02114    26.457388   -2860.1739   -11171.655    59.195602 
   27820    834.00837    26.843207   -2860.7094   -11514.341    59.189042 
   27830    904.08115    29.098553   -2863.1283   -14612.909    59.212908 
   27840    880.70995    28.346333   -2862.5526   -16662.471    59.256525 
   27850    781.71992    25.160262   -2859.5304   -15944.325    59.299063 
   27860    791.91677    25.488456   -2860.0092   -14878.545    59.323353 
   27870    876.56602    28.212958   -2862.8952   -14922.381    59.326567 
   27880    845.87124    27.225022   -2862.0741   -14957.955    59.320795 
   27890    772.84265     24.87454   -2859.8784   -15076.296      59.3237 
   27900    784.08012    25.236227   -2860.3855    -15686.53    59.346713 
   27910    810.02118     26.07116   -2861.3653   -16111.982    59.387431 
   27920    777.70676    25.031096   -2860.4617   -15670.857    59.432194 
   27930    792.49772    25.507154   -2861.0691   -14437.201    59.464456 
   27940    831.61438    26.766154   -2862.4664   -12515.291    59.472598 
   27950    788.51441    25.378948   -2861.2137   -10650.469    59.458613 
   27960    767.85014    24.713853   -2860.6754   -10519.919    59.433754 
   27970    827.75878    26.642059   -2862.7339     -12484.6    59.404935 
   27980     856.6113      27.5707   -2863.8072   -14002.256    59.372024 
   27990     783.9857    25.233188   -2861.6125    -13826.21    59.336763 
   28000    759.91529    24.458463   -2860.9731   -13178.629    59.308656 
   28010    798.45962    25.699043   -2862.3506   -13582.037    59.300853 
   28020    794.67285    25.577162   -2862.3671   -15314.113    59.317783 
   28030    778.46571    25.055523   -2861.9819   -17976.264    59.347848 
   28040    807.07868    25.976454   -2863.0441   -19576.815    59.371835 
   28050    808.42681    26.019844   -2863.2364   -18290.203    59.375862 
   28060    746.45653    24.025283   -2861.3853   -15038.181    59.360597 
   28070    712.28007    22.925287    -2860.415   -12196.932    59.345025 
   28080     752.6712    24.225307   -2861.8396   -11491.978    59.354876 
   28090    807.45336    25.988513   -2863.7345   -12735.423    59.396345 
   28100    808.33567    26.016911   -2863.9047   -13425.438    59.447618 
   28110    774.14516    24.916463   -2862.9478   -12695.662    59.478599 
   28120    783.14937     25.20627   -2863.3825   -11564.792    59.472799 
   28130     827.7317    26.641187   -2864.9752   -10954.602    59.433508 
   28140    820.29037    26.401682   -2864.9059   -10790.393    59.381574 
   28150    786.64335    25.318727   -2863.9968   -11141.861    59.343364 
   28160    770.56604    24.801266    -2863.654    -10436.41    59.331625 
   28170    745.89364    24.007166   -2863.0286   -7934.3179    59.337737 
   28180    741.05018    23.851275   -2863.0352   -6141.8847    59.342649 
   28190    748.70048    24.097506   -2863.4423   -6429.9401    59.335544 
   28200    728.90564    23.460394   -2862.9598   -8478.2892    59.317373 
   28210    724.48178    23.318008   -2862.9642   -11219.609    59.293286 
   28220    747.14691    24.047503   -2863.8411   -13569.562    59.268992 
   28230     724.1014    23.305765   -2863.2424   -14310.736    59.249072 
   28240    700.91755    22.559575   -2862.6294   -13972.777    59.235021 
   28250    725.39255    23.347322   -2863.5476   -13159.207    59.224969 
   28260    743.80782    23.940032   -2864.2718   -11630.355    59.218141 
   28270    746.90922    24.039853   -2864.5062   -10311.306    59.216924 
   28280    746.98208    24.042198   -2864.6458   -10190.408    59.222626 
   28290    753.09014    24.238791   -2864.9844   -10577.654    59.233147 
   28300    752.32203    24.214069   -2865.1056    -9911.252    59.245743 
   28310    763.90102    24.586747   -2865.6314   -8930.7685    59.261238 
   28320    757.08392    24.367334   -2865.5738   -9204.3315    59.282367 
   28330    707.41507    22.768703    -2864.132   -10967.184     59.30722 
   28340    691.81446    22.266585   -2863.7785   -13818.464    59.328835 
   28350    710.26336    22.860377   -2864.5195   -16384.201    59.339448 
   28360    697.30957     22.44345   -2864.2464   -16469.348     59.33493 
   28370    693.62059    22.324717   -2864.2656   -15194.878    59.321278 
   28380    719.90716    23.170771   -2865.2543   -14773.406    59.312849 
   28390    688.19342    22.150039   -2864.3723    -14713.33    59.320514 
   28400    683.33786    21.993759   -2864.3471   -15020.656    59.344963 
   28410    750.91998    24.168942   -2866.6647   -15896.003    59.380398 
   28420    746.57982    24.029251   -2866.6794   -15286.459    59.416599 
   28430    681.28424    21.927662   -2864.7277   -13336.877    59.438916 
   28440    676.66102     21.77886   -2864.7216   -11966.527    59.436773 
   28450    715.04038     23.01413   -2866.1043   -11731.434    59.415748 
   28460    706.57782    22.741756   -2865.9833   -12039.907    59.396156 
   28470    676.38708    21.770043   -2865.1589   -13372.674    59.395297 
   28480    686.77561    22.104406   -2865.6385   -15168.099    59.412726 
   28490    714.23342    22.988157   -2866.6736   -16008.196    59.432426 
   28500    704.50025    22.674887   -2866.5169   -15658.326    59.435854 
   28510    675.08488    21.728131   -2865.7231   -14251.359    59.416348 
   28520     684.8144    22.041283   -2866.1877   -12582.664     59.38438 
   28530     708.5899    22.806516   -2867.1108    -11884.71    59.357981 
   28540    694.94209     22.36725   -2866.8332   -12938.945    59.347478 
   28550    672.20507    21.635442   -2866.2597   -15164.999    59.347979 
   28560    679.56114    21.872203   -2866.6543   -16480.431     59.34555 
   28570    682.86015    21.978384   -2866.9203   -15319.884    59.331536 
   28580     666.8421    21.462831   -2866.5617   -12314.209    59.310472 
   28590    678.78548    21.847238   -2867.1027   -10329.581    59.295341 
   28600    692.77281     22.29743   -2867.7179    -10445.16    59.295693 
   28610    629.37918    20.257057   -2865.8333   -10926.648    59.309083 
   28620    601.48647    19.359309   -2865.0741   -11310.354    59.325381 
   28630    645.69563    20.782215   -2866.6338   -11412.049    59.337084 
   28640    652.80608     21.01107    -2867.001   -11491.691    59.344213 
   28650    625.64044    20.136723   -2866.2596   -12287.598    59.350868 
   28660    631.39507     20.32194   -2866.5741   -13891.562     59.35641 
   28670     650.8471    20.948019   -2867.3316   -15531.566    59.352343 
   28680    643.17539    20.701099   -2867.2171   -15700.383    59.330552 
   28690    639.14785     20.57147   -2867.2196   -13980.621    59.291571 
   28700    650.08971    20.923642   -2867.7078    -12007.81    59.246902 
   28710    644.91461    20.757077   -2867.6794   -12032.529    59.213373 
   28720    647.19047    20.830327   -2867.8939   -14672.233    59.201372 
   28730    647.70692     20.84695    -2868.057   -17537.392    59.208571 
   28740    620.00609    19.955377   -2867.3096   -17036.919    59.224601 
   28750    619.21792    19.930009   -2867.4243   -13287.846    59.240423 
   28760    661.87952    21.303106   -2868.9467   -9517.9241    59.254515 
   28770    646.01273    20.792421   -2868.5946   -7274.4314    59.271459 
   28780    570.44615    18.360252   -2866.3062   -7196.2778    59.295679 
   28790    595.07345    19.152901   -2867.2329   -9673.4423    59.325035 
   28800    671.85106    21.624048   -2869.8542   -12670.222    59.349736 
   28810    636.25125     20.47824    -2868.866   -12678.765    59.360672 
   28820    581.89489    18.728738   -2867.2631   -10617.651    59.358778 
   28830    608.53215    19.586079   -2868.2651   -9726.2133     59.35405 
   28840    628.61114    20.232337    -2869.061   -10668.875    59.358223 
   28850    618.83186    19.917584   -2868.8979   -12303.849    59.378009 
   28860    618.40424     19.90382   -2869.0382   -13960.436    59.409708 
   28870    606.69996    19.527109   -2868.8161   -14376.962    59.439278 
   28880    586.40435    18.873879   -2868.3114   -13184.412    59.452852 
   28890    595.15271    19.155452   -2868.7401   -11121.096    59.448085 
   28900    591.89836    19.050708   -2868.7817   -9397.7649    59.432358 
   28910    581.74906    18.724045   -2868.5965   -9866.2618    59.414802 
   28920     599.2041    19.285849   -2869.3022   -12516.599    59.402898 
   28930     590.3722    19.001588   -2869.1622   -14704.878    59.399749 
   28940    581.55131     18.71768   -2869.0194   -15206.242    59.401688 
   28950    599.17477    19.284905   -2869.7313   -13962.668     59.40076 
   28960    596.53619     19.19998   -2869.7944   -11193.644    59.391249 
   28970     578.4535    18.617975   -2869.3594   -9271.0443    59.376677 
   28980    567.84872    18.276652   -2869.1616   -9339.3189    59.367877 
   28990    570.36297    18.357575   -2869.3836   -9551.4068    59.369811 
   29000    587.11177    18.896648   -2870.0662     -8860.97    59.375585 
   29010    594.47364    19.133595   -2870.4536   -7053.7202    59.376355 
   29020    567.17343    18.254917   -2869.7242   -4747.3549    59.369864 
   29030    553.05201    17.800408   -2869.4127   -3498.3379    59.359923 
   29040    576.88808    18.567591   -2870.3253   -4547.9902    59.355153 
   29050    574.93056    18.504586   -2870.4126   -8464.1239    59.364912 
   29060    538.83308    17.342761   -2869.3944   -13486.933    59.389035 
   29070    535.61738    17.239261   -2869.4272    -15689.18    59.413902 
   29080     566.2091    18.223879   -2870.5503   -14035.227    59.420772 
   29090    580.25507     18.67596   -2871.1495   -12065.199    59.397674 
   29100    555.50191     17.87926   -2870.5003   -12444.293    59.347108 
   29110    546.60028    17.592754   -2870.3583   -14438.409    59.286844 
   29120    561.33577    18.067027     -2870.98    -16243.15    59.241535 
   29130    556.20686     17.90195   -2870.9652   -16836.036    59.225813 
   29140    539.62063    17.368109   -2870.5797   -15742.048    59.234158 
   29150    528.14861    16.998873   -2870.3552    -13680.36    59.250306 
   29160    513.45289     16.52588   -2870.0208    -12086.02    59.262671 
   29170    500.60986    16.112517    -2869.738   -12532.683    59.267999 
   29180      504.372    16.233604   -2869.9834   -14496.013    59.271455 
   29190    523.83036    16.859887   -2870.7343   -14689.002    59.285074 
   29200    540.62683    17.400494   -2871.4035   -12148.076    59.317407 
   29210    552.67987     17.78843   -2871.9286   -9217.0857    59.365554 
   29220    539.06231    17.350139   -2871.6318   -8413.2858    59.416777 
   29230    533.26483    17.163542   -2871.5874   -10932.445    59.456189 
   29240    548.71734    17.660893   -2872.2346   -15254.427    59.476314 
   29250    536.72822    17.275014   -2872.0028   -17606.826    59.480376 
   29260     524.1214    16.869254     -2871.75   -17218.487    59.476715 
   29270    535.84845    17.246698   -2872.2847    -15355.68     59.47214 
   29280    519.93652     16.73456    -2871.932   -12970.788    59.467896 
   29290    483.51657    15.562356   -2870.9079   -11823.354    59.461214 
   29300    493.67633    15.889356   -2871.3772   -13154.512    59.449675 
   29310    503.39622    16.202198   -2871.8336   -15213.414    59.432654 
   29320    478.46679    15.399825   -2871.1685   -15818.626    59.413249 
   29330     467.1203    15.034629   -2870.9316   -14685.261     59.39977 
   29340    480.16647     15.45453    -2871.476   -13280.193    59.399287 
   29350    500.52541    16.109799   -2872.2583   -13022.693    59.409664 
   29360    511.55503    16.464796   -2872.7466   -14160.713    59.421123 
   29370    509.05292    16.384263    -2872.804   -15829.736    59.425428 
   29380    505.87683    16.282038   -2872.8446   -17584.067     59.42409 
   29390     490.0007    15.771053   -2872.4765   -18185.088    59.427369 
   29400    483.48934    15.561479   -2872.4077   -17186.581     59.44238 
   29410    490.66033    15.792283   -2872.7817   -16021.722    59.463561 
   29420    483.94025    15.575993   -2872.7091   -15653.308    59.475679 
   29430    482.95261    15.544204   -2872.8207   -15848.058    59.465679 
   29440    487.90679    15.703659   -2873.1269   -16287.985    59.432937 
   29450    468.21248    15.069782   -2872.6382   -16109.491    59.389203 
   29460     449.5596    14.469425   -2872.1743   -15218.207    59.349541 
   29470    470.47991    15.142761   -2872.9832    -14284.37    59.322748 
   29480    487.64913    15.695366   -2873.6795   -13834.937    59.308374 
   29490    462.83066    14.896564   -2873.0226   -13868.608     59.29973 
   29500    467.51488    15.047329   -2873.3131   -14463.445    59.289511 
   29510    486.47121    15.657453   -2874.0716   -15272.463    59.277656 
   29520    454.60872    14.631935   -2873.1926   -15044.902    59.271375 
   29530    438.42658      14.1111   -2872.8085   -13686.811    59.275481 
   29540    476.63198     15.34077   -2874.1799   -12450.493     59.28801 
   29550    487.95015    15.705054    -2874.698   -12048.801    59.302556 
   29560    455.72271    14.667789   -2873.8133   -12319.794    59.310227 
   29570    438.65975    14.118605    -2873.411   -13205.382     59.30625 
   29580    424.49747     13.66278   -2873.0936   -13587.865     59.29749 
   29590    438.35116    14.108672   -2873.6738   -12963.199    59.296392 
   29600    467.02491    15.031559   -2874.7406   -11173.214    59.307541 
   29610    444.19675    14.296817   -2874.1518   -9153.1117    59.322887 
   29620    420.59751    13.537257   -2873.5294   -8957.6259    59.329126 
   29630    441.29681     14.20348   -2874.3333   -10410.251    59.320356 
   29640     443.3333    14.269026   -2874.5423   -11669.703    59.304266 
   29650     407.0549    13.101378   -2873.5104   -11944.148    59.294841 
   29660    401.81883    12.932851    -2873.468   -11554.622    59.299843 
   29670    428.19395    13.781755   -2874.4458   -11078.456    59.316156 
   29680    430.47229    13.855085   -2874.6527   -11242.066     59.33353 
   29690    422.67859    13.604238   -2874.5345   -12065.351    59.342316 
   29700     450.2647    14.492119   -2875.5622   -13506.842    59.340734 
   29710    470.35122    15.138619   -2876.3662   -14696.978    59.336149 
   29720    430.09182    13.842839   -2875.2309   -14604.787    59.337326 
   29730    394.46446    12.696145   -2874.2311   -14485.444    59.347103 
   29740    410.89944    13.225117   -2874.9036   -15872.904    59.362238 
   29750    413.16491    13.298033   -2875.1239   -17493.099     59.37715 
   29760    378.35723    12.177721   -2874.1403   -17463.033    59.388274 
   29770    387.81718    12.482197   -2874.5729   -16146.806    59.395655 
   29780    426.20521    13.717746    -2875.947   -14364.146    59.400931 
   29790    403.04298    12.972251   -2875.3439   -12082.326    59.405206 
   29800    366.48178    11.795501    -2874.296   -10513.633     59.41091 
   29810    394.25386    12.689367   -2875.3165   -11253.644     59.42191 
   29820     429.5132    13.824216   -2876.5919   -13162.271    59.438181 
   29830    411.33878    13.239258   -2876.1557   -14125.284    59.452929 
   29840    374.93957    12.067721   -2875.1249   -13834.349    59.454533 
   29850     371.6694    11.962468   -2875.1523    -13389.62    59.432227 
   29860    390.26288    12.560914   -2875.8857   -13347.269    59.385565 
   29870    398.89765    12.838831   -2876.3047   -13829.138    59.329038 
   29880    389.55253     12.53805   -2876.1483   -14813.206    59.284025 
   29890    367.47077    11.827332    -2875.576   -15378.362    59.267118 
   29900    372.68277    11.995084   -2875.8781   -15472.777    59.282119 
   29910    390.43048    12.566308   -2876.5907   -15612.196     59.31522 
   29920    368.93824    11.874564   -2876.0405   -15798.914     59.34272 
   29930    347.48891      11.1842   -2875.4808   -15775.963    59.350387 
   29940    365.59345    11.766909   -2876.1938   -15544.042    59.343397 
   29950    370.59177    11.927784   -2876.4893   -15430.573    59.337875 
   29960    362.57542    11.669771   -2876.3648   -16226.663    59.347216 
   29970    374.99235     12.06942   -2876.9014   -17903.428    59.373773 
   29980    385.19933     12.39794   -2877.3754   -18505.574    59.407065 
   29990    377.38157    12.146319   -2877.2742   -16767.338    59.431598 
   30000     369.3896    11.889091   -2877.1681   -14090.765    59.439165 
Loop time of 26.264 on 1 procs for 30000 steps with 250 atoms

Performance: 49.345 ns/day, 0.486 hours/ns, 1142.248 timesteps/s
99.6% CPU use with 1 MPI tasks x no OpenMP threads

MPI task timing breakdown:
Section |  min time  |  avg time  |  max time  |%varavg| %total
---------------------------------------------------------------
Pair    | 24.574     | 24.574     | 24.574     |   0.0 | 93.57
Neigh   | 1.0118     | 1.0118     | 1.0118     |   0.0 |  3.85
Comm    | 0.1048     | 0.1048     | 0.1048     |   0.0 |  0.40
Output  | 0.45975    | 0.45975    | 0.45975    |   0.0 |  1.75
Modify  | 0.089119   | 0.089119   | 0.089119   |   0.0 |  0.34
Other   |            | 0.02443    |            |       |  0.09

Nlocal:    250 ave 250 max 250 min
Histogram: 1 0 0 0 0 0 0 0 0 0
Nghost:    878 ave 878 max 878 min
Histogram: 1 0 0 0 0 0 0 0 0 0
Neighs:    0 ave 0 max 0 min
Histogram: 1 0 0 0 0 0 0 0 0 0
FullNghs:  8172 ave 8172 max 8172 min
Histogram: 1 0 0 0 0 0 0 0 0 0

Total # of neighbors = 8172
Ave neighs/atom = 32.688
Neighbor list builds = 3000
Dangerous builds not checked




Total wall time: 0:00:26
