
# Define the lattice
variable	lattice_constant equal 3.90830
lattice		bcc ${lattice_constant}
lattice		bcc 3.9083
Lattice spacing in x,y,z = 3.9083 3.9083 3.9083

# Define region
# multiples of lattice spacing
region 		simbox block 0 5 0 5 0 5

# Create Atoms
create_box 	1 simbox
Created orthogonal box = (0 0 0) to (19.5415 19.5415 19.5415)
  1 by 1 by 1 MPI processor grid
create_atoms 	1 box
Created 250 atoms
  Time spent = 0.000217915 secs
mass		1 18.015

# Define Interatomic Potential
pair_style	sw
pair_coeff	* * mW.sw mW
Reading potential file mW.sw with DATE: 2019-02-27

neighbor 	2.0 bin
neigh_modify	delay 10 check no

# Initialize atom velocities
velocity	all create ${temperature} 97287
velocity	all create 300.0 97287

# Pressure computations
compute		total_press all pressure thermo_temp
compute		peratom all stress/atom NULL
compute		p all reduce sum c_peratom[1] c_peratom[2] c_peratom[3]
variable	press equal -(c_p[1]+c_p[2]+c_p[3])/(3*vol)

# Density computations
variable	total_mass equal mass(all)
variable	v equal vol
print 		${total_mass}
print 		4503.75
4503.75
print		$v
print		7462.31694809837
7462.31694809837

variable 	density equal v_total_mass/(v_v*18.015)
print 		${density}
print 		0.0335016593021699
0.0335016593021699

# Displacement computations
compute		disp all msd

# Run equilibration
thermo_style	custom step temp ke pe c_total_press c_disp[4]
thermo		10
dump		1 all atom 10 ${simname}.dump
dump		1 all atom 10 mW_bcc_3.90830.dump


fix 		4 all nvt temp 7000.0 300.0 $(100.0*dt)
fix 		4 all nvt temp 7000.0 300.0 0.10000000000000000555
timestep	0.0005
run		30000
Neighbor list info ...
  update every 1 steps, delay 10 steps, check no
  max neighbors/atom: 2000, page size: 100000
  master list distance cutoff = 6.3065
  ghost atom cutoff = 6.3065
  binsize = 3.15325, bins = 7 7 7
  1 neighbor lists, perpetual/occasional/extra = 1 0 0
  (1) pair sw, perpetual
      attributes: full, newton on
      pair build: full/bin/atomonly
      stencil: full/bin/3d
      bin: standard
Per MPI rank memory allocation (min/avg/max) = 4.73 | 4.73 | 4.73 Mbytes
Step Temp KinEng PotEng c_total_press c_disp[4] 
       0          300    9.6557328    -2312.324   -1083804.1            0 
      10    303.37001    9.7641993   -2312.4092   -1078475.3 0.0010378544 
      20    315.79683    10.164166   -2312.7377   -1063071.1 0.0041929242 
      30    345.73701    11.127814   -2313.5753   -1039834.9 0.0095742035 
      40    417.82877    13.448143   -2315.6985   -1012072.3  0.017370069 
      50    578.37599     18.61548   -2320.5593   -980813.59  0.028135158 
      60    869.84618    27.996674   -2329.4595   -941402.34  0.043485094 
      70    1307.4126    42.080088   -2342.8274   -884908.66  0.066705658 
      80    1884.0357     60.63915   -2360.4125   -806706.28   0.10260096 
      90     2586.763    83.256974   -2381.7974   -711150.25   0.15653053 
     100    3373.3483    108.57383   -2405.6203   -605246.68   0.23371282 
     110    4117.1487    132.51363   -2427.8147   -497493.46   0.33879457 
     120     4768.493    153.47765   -2446.8228    -396896.1   0.47429951 
     130    5356.5603    172.40505   -2463.6195   -310285.96   0.64041381 
     140    5786.7971    186.25256   -2475.2028   -240346.22   0.83545862 
     150    6100.1043    196.33659   -2482.9586    -191216.7    1.0555617 
     160    6345.3727    204.23075   -2488.4975   -152641.97    1.2964676 
     170    6523.7835    209.97304   -2491.8901   -119016.65    1.5533897 
     180    6568.1742    211.40179   -2491.0012   -91331.044    1.8186194 
     190    6541.6134     210.5469   -2487.8965   -63303.774    2.0850345 
     200    6545.2501    210.66395   -2485.8181   -38101.434    2.3475305 
     210    6711.8665    216.02663   -2489.0016   -26536.524    2.6029755 
     220    6872.9297    221.21058   -2491.9983   -18062.529    2.8522315 
     230    7080.7877    227.90065   -2496.5303   -9318.9608    3.0955469 
     240    6967.0689    224.24052    -2490.769   -5628.4512    3.3335316 
     250    6633.1817     213.4941   -2478.0555   -1285.5098    3.5615037 
     260    6623.8148    213.19262   -2475.8841      771.735    3.7721217 
     270    6556.3288    211.02053   -2471.8298     11097.05     3.966523 
     280    6510.2337    209.53692   -2468.4835     21938.72    4.1500915 
     290    6713.6428     216.0838   -2473.1444    9799.3968    4.3294771 
     300    6975.2319    224.50325   -2479.6225   -14944.532    4.5094759 
     310    7152.2279        230.2   -2483.3717    -29973.68     4.689332 
     320    7282.7708    234.40163   -2485.6705   -35575.645    4.8709443 
     330    7301.4984    235.00439   -2484.4527   -35077.543     5.057359 
     340    7405.1924    238.34187   -2486.0819   -35994.891    5.2443347 
     350    7252.4217    233.42482   -2479.5438   -16326.958    5.4258416 
     360     7032.358     226.3419   -2470.9688    3748.6429    5.5949158 
     370     7253.673     233.4651   -2476.6741    6834.1031    5.7509806 
     380    7569.9193    243.64373   -2485.4403   -3990.9187     5.902984 
     390    7866.2442    253.18117   -2493.6593    -7370.749    6.0535222 
     400    7654.3051    246.35975   -2485.6549    4998.5779    6.1966167 
     410    7416.0807    238.69231   -2476.9928    25253.975    6.3265783 
     420    7564.6494    243.47411    -2480.898    34841.788    6.4453591 
     430    7856.6513    252.87242   -2489.5217    32199.951     6.554055 
     440    7717.8999     248.4066    -2484.403    36739.785     6.653309 
     450    7715.5913    248.33229   -2483.8648     43356.59    6.7475545 
     460    7732.4441    248.87471    -2484.071    45692.881    6.8434949 
     470    7866.5468    253.19091   -2488.2265    44424.524    6.9400873 
     480    7731.2957    248.83775   -2483.8504    37824.767    7.0344427 
     490    7650.5558    246.23908   -2481.4051     15698.87    7.1254912 
     500    7516.0163    241.90882   -2477.3551    1094.6225    7.2178799 
     510    7437.5786    239.38424   -2475.2129    -1837.663    7.3172805 
     520    7394.1095    237.98515   -2474.3107    5906.9575    7.4261761 
     530    7208.1703    232.00056   -2468.8631     25013.22     7.541882 
     540    7514.8659    241.87179     -2479.39    32295.204    7.6557877 
     550    7757.1648    249.67037   -2487.9625    23219.818    7.7721356 
     560    7652.4054    246.29861   -2485.5339     18305.26    7.8948603 
     570    7315.1438    235.44358   -2475.6973    15750.782     8.013094 
     580    7380.1683    237.53644   -2478.9134    6340.9929    8.1224457 
     590     7289.232    234.60959   -2477.1779    5638.1344    8.2389043 
     600    7046.4395    226.79512   -2470.5892    4758.2219    8.3687881 
     610    6892.7349    221.84802   -2466.8321   -4413.4615     8.502425 
     620    7345.6232    236.42458   -2482.6812   -13422.192    8.6316379 
     630    7519.3739    242.01689   -2489.6764    -9130.822    8.7578529 
     640    7166.0805    230.64586   -2479.7322   -944.14624    8.8845486 
     650    7290.6476    234.65515    -2485.236   -14328.418    9.0158595 
     660    7306.9974    235.18138    -2487.325     -36944.7    9.1591057 
     670    7132.2159     229.5559   -2483.2801   -55612.485    9.3119302 
     680    7105.1991    228.68635   -2484.0096   -63024.549    9.4691336 
     690    7090.0522    228.19883   -2485.1247   -52419.315    9.6307034 
     700    7354.5319    236.71132   -2495.2922   -42808.405    9.7929783 
     710    7604.0116    244.74101   -2505.1357    -37379.93     9.948009 
     720    7253.0856    233.44619   -2495.6662   -21080.843    10.088585 
     730    7252.8903     233.4399    -2497.529   -17839.227    10.209191 
     740    6879.5265     221.4229   -2487.3658   -13419.576    10.312345 
     750    6217.1797    200.10475   -2467.6454   -18938.939    10.403579 
     760    6848.9995    220.44037   -2489.5309   -40398.621    10.494191 
     770    7452.2969    239.85796   -2510.6348   -53844.809    10.599476 
     780    7194.6336    231.56487   -2504.0708   -55374.986    10.722155 
     790    6855.8796    220.66181   -2494.8508   -49137.387    10.855414 
     800    6681.7443    215.05713    -2490.857   -39677.369    10.989181 
     810     6489.031     208.8545   -2486.1397     -35283.2    11.112489 
     820    6739.4697    216.91506   -2495.6253   -41226.584    11.224636 
     830     7107.247    228.75226   -2508.9508   -43169.873    11.334348 
     840     6882.945    221.53293   -2503.2105   -20803.053     11.44591 
     850    6582.4658    211.86177   -2494.9317      -2765.3    11.550085 
     860    6757.2883    217.48857   -2501.9042   -5586.6839    11.639897 
     870    6960.1778    224.01873   -2509.8068   -25529.589    11.724072 
     880    6753.6679    217.37204   -2504.4818   -44243.159    11.813056 
     890    6882.0388    221.50376   -2509.9358   -41804.005    11.902099 
     900    7021.8671    226.00424   -2515.7854   -28378.011    11.984493 
     910     6881.566    221.48854   -2512.6027    -13858.19    12.063293 
     920    6931.1918    223.08579   -2515.5368   -13069.909    12.150891 
     930    7045.1622    226.75401   -2520.5692   -12419.898    12.251433 
     940    6984.6856    224.80753   -2520.0094   -10539.165    12.349449 
     950    6721.4136    216.33391   -2512.8947   -18338.637    12.429953 
     960    6591.6501    212.15737   -2509.9951   -32243.258    12.487015 
     970    6852.2108    220.54372   -2519.6694   -44542.912     12.52594 
     980    6662.0288    214.42257   -2514.8034   -43020.727    12.569025 
     990    6425.7803    206.81873   -2508.3645   -33724.811    12.623074 
    1000    6600.1216    212.43004   -2515.1055   -30031.136    12.678079 
    1010    6643.3923    213.82274   -2517.5723   -30241.992    12.732112 
    1020    6815.5637    219.36421   -2524.1978   -31020.966    12.789882 
    1030    6768.0992    217.83653    -2523.758   -34921.793    12.849994 
    1040    6415.1956    206.47805   -2513.4084   -36265.775    12.902743 
    1050    6478.3502    208.51073   -2516.3946   -37783.671    12.935774 
    1060    6674.8227    214.83435   -2523.6571   -34408.155    12.947963 
    1070    6481.4093    208.60919   -2518.3226   -22907.616    12.946573 
    1080    6302.4418    202.84898    -2513.372   -16806.564    12.940389 
    1090     6378.892    205.30959   -2516.5958   -29564.777     12.94091 
    1100    6404.3646    206.12945   -2518.0879   -31999.731    12.958576 
    1110    6722.5313    216.36989   -2529.0144   -28699.217    12.996366 
    1120    6726.6791    216.50339   -2529.8016   -20591.048    13.046435 
    1130    6717.7628    216.21641   -2530.1712   -13745.072    13.102413 
    1140    6798.3794    218.81112   -2533.4314   -6085.9381    13.172063 
    1150    6768.1751    217.83897   -2533.1283    289.94925    13.262741 
    1160    6662.4726    214.43685   -2530.4039    15150.059    13.374501 
    1170    6428.8272    206.91679    -2523.497    25155.846    13.500203 
    1180    6703.8199    215.76765   -2532.9642    17855.209    13.626078 
    1190    6849.9675    220.47152    -2538.301    4945.9885    13.740271 
    1200    6340.2952    204.06732   -2522.4813   -493.48824    13.838939 
    1210    6221.8056    200.25364   -2519.1922    6742.2692    13.914154 
    1220    6527.4562    210.09124    -2529.507    20487.354    13.962903 
    1230    6599.8656    212.42179    -2532.288    39424.636    13.993497 
    1240    6454.3034    207.73677   -2528.0087     45131.68    14.025715 
    1250     6585.361    211.95495   -2532.6242    27671.724    14.078589 
    1260    6596.6205    212.31735   -2533.3555    11094.617    14.161041 
    1270    6511.6394    209.58217   -2530.9594    6663.6787    14.257953 
    1280    6586.0712    211.97781   -2533.6894    1094.1839     14.34244 
    1290    6435.8895     207.1441   -2529.1575    1068.9035    14.410711 
    1300    6142.7442    197.70899   -2519.9501    10684.842    14.478059 
    1310    6321.3817    203.45858   -2525.8818    7444.6905    14.559957 
    1320    6487.7143    208.81212   -2531.3625   -4913.0599    14.663061 
    1330    6230.9224    200.54707   -2523.1513   -13819.615    14.779384 
    1340    6217.2232    200.10615   -2522.7258   -13355.913    14.893104 
    1350     6190.998    199.26208   -2521.8264   -14601.206    14.995264 
    1360    5901.1864    189.93426    -2512.331   -7164.7559    15.087086 
    1370     6147.305    197.85578   -2520.0254   -8042.0339    15.181942 
    1380    6348.0502    204.31692   -2526.1353   -14054.619    15.288762 
    1390    6366.6248    204.91476   -2526.3234   -9620.7744    15.396003 
    1400    6283.4354    202.23724   -2523.1786    2912.7352     15.49407 
    1410    6221.3907    200.24029   -2520.6618    1002.4459     15.58358 
    1420    6161.8387    198.32356   -2518.1437   -2559.1924    15.666972 
    1430    6212.7718    199.96288   -2519.1199   -5606.0216    15.746569 
    1440    6142.9428    197.71538   -2516.1105    2044.5571    15.830524 
    1450    6246.8805     201.0607    -2518.643    10496.694     15.92591 
    1460    6048.3066    194.66944   -2511.3233    14921.871    16.041765 
    1470    6369.6683    205.01272   -2520.7027    659.81915    16.179958 
    1480    6453.4047    207.70784   -2522.3075   -10500.321    16.329651 
    1490    6175.8313    198.77392   -2512.2538   -12274.781    16.474698 
    1500    6559.7178    211.12961   -2523.4667    -9778.084    16.596884 
    1510     6939.469     223.3522   -2534.4529    199.54064    16.679072 
    1520    6614.3596     212.8883   -2522.7517    13512.283    16.721164 
    1530    6518.0371    209.78808   -2518.5034    19406.243    16.739135 
    1540    6794.2113    218.67696   -2526.2333    9949.0334    16.760628 
    1550    6721.3144    216.33072   -2522.7158   -619.58843    16.811456 
    1560    6231.5992    200.56886   -2505.8337     2105.405    16.893841 
    1570    6370.7032    205.04603   -2509.2309   -3267.3431    16.987341 
    1580    6730.6446    216.63102   -2519.6555   -11454.679    17.065792 
    1590    6464.8774     208.0771   -2509.9183   -6724.6834    17.121894 
    1600     6295.819    202.63582   -2503.3475    5764.5405    17.172185 
    1610    6760.9291    217.60575   -2517.1716    2391.5184     17.24087 
    1620    6851.6873    220.52687   -2518.8861   -12645.905    17.348906 
    1630    6643.6063    213.82962   -2511.0462   -17667.972    17.498122 
    1640     6738.827    216.89438   -2513.0295   -11826.019    17.669317 
    1650    6807.3497    219.09983   -2514.1649   -8473.4269    17.828317 
    1660    6661.9881    214.42126   -2508.4548   -11850.558     17.93895 
    1670    6563.7564    211.25959   -2504.3105   -12875.254    17.993055 
    1680    6611.1383    212.78462   -2504.8684   -17815.081    18.009717 
    1690    6764.4587    217.71935   -2508.8341   -20463.841    18.027149 
    1700    7030.4829    226.28155   -2516.4417   -19119.843    18.076977 
    1710    7182.3675    231.17007    -2520.422    -8692.835    18.163124 
    1720    7324.0568    235.73045   -2524.1615    1711.3188    18.274584 
    1730    7632.5135    245.65837   -2533.4163    9303.1922    18.387046 
    1740    7216.4274    232.26632   -2519.4836     21771.99    18.472191 
    1750    6707.6935    215.89232   -2502.7179    29208.731    18.519482 
    1760    6804.5123    219.00851   -2505.4987    19029.296    18.551884 
    1770    7218.5949    232.33608   -2518.5311   -5748.0084    18.598668 
    1780    7100.0936    228.52202   -2514.4854   -17019.039    18.669749 
    1790     6645.063    213.87651   -2499.6773   -13300.993    18.753685 
    1800    6780.5354    218.23679   -2503.9272    -16770.11    18.824884 
    1810    7239.3942    233.00552   -2518.6255   -22051.414    18.870497 
    1820    7294.0404    234.76435    -2520.388   -16502.111    18.906626 
    1830    7246.9845    233.24982   -2519.0096   -10147.853    18.961314 
    1840    7261.2972    233.71049   -2519.7402   -8061.7523    19.052636 
    1850     7085.628    228.05644   -2514.4495   -15182.838    19.168618 
    1860    7058.5561    227.18511   -2514.0399   -15036.551    19.275276 
    1870    7163.3498    230.55797   -2517.9799   -19110.954    19.349633 
    1880    7113.5695    228.95576   -2517.0292   -23632.024    19.390761 
    1890    7194.0113    231.54484   -2520.4073   -20519.504    19.421463 
    1900    7017.1786    225.85334   -2515.5913   -14927.347     19.46738 
    1910    6881.5378    221.48763   -2512.1654   -9348.4579    19.536459 
    1920    7079.8467    227.87036   -2519.5835   -11075.388     19.62792 
    1930    7045.1208    226.75268   -2519.5983   -12049.351    19.733865 
    1940    6870.2224    221.12344   -2515.1474   -23356.517    19.844766 
    1950    6982.9961    224.75315   -2520.0337    -30844.62    19.962923 
    1960    7015.2086    225.78993   -2522.4014   -24688.925    20.090805 
    1970    7021.8436    226.00349   -2524.0168   -16378.655    20.216019 
    1980    7151.0066     230.1607   -2529.6626   -27615.464     20.33362 
    1990    7288.1041    234.57329   -2535.6924    -39361.19    20.459248 
    2000    7053.8289    227.03296   -2529.8271   -29793.562    20.599244 
    2010    6789.9889    218.54106   -2522.9882   -22837.004    20.732716 
    2020    6726.0492    216.48312   -2522.5483   -13553.947      20.8434 
    2030    6631.9845    213.45557    -2521.098   -7723.3779    20.943651 
    2040    6315.6585    203.27437   -2512.3632    -8418.364    21.057423 
    2050    6394.9461     205.8263    -2516.248   -18756.792    21.181746 
    2060    6888.7303    221.71913   -2533.4667   -25462.243    21.290948 
    2070    7066.3757    227.43679   -2540.5802    -25659.88    21.370451 
    2080    6577.4779    211.70123   -2526.1427   -19379.866    21.442742 
    2090    6782.5807    218.30262   -2534.0097   -25140.437    21.539225 
    2100    7090.6782    228.21898   -2545.2231   -32956.914    21.673348 
    2110    6759.0923    217.54663    -2535.833   -30821.816     21.83582 
    2120    6391.3949    205.71201   -2525.1668   -24881.857    21.984605 
    2130    6422.3024    206.70679   -2527.2469   -17977.215    22.081094 
    2140    6538.7753    210.45556   -2531.9958   -10826.893    22.127193 
    2150     6851.287    220.51399   -2543.0708   -7774.5422    22.145589 
    2160    6731.4588    216.65722   -2540.2131   -10459.861    22.162633 
    2170     6490.785    208.91095   -2533.4073   -9965.9178    22.194536 
    2180    6673.4652    214.79066   -2540.2138   -6733.0989    22.233926 
    2190    6544.6224    210.64375   -2536.9527   -7589.4619    22.276579 
    2200    6283.4234    202.23686   -2529.3597   -2481.5756    22.323879 
    2210    6205.0147    199.71321   -2527.5766    5272.1617    22.376754 
    2220    6277.9287    202.06001   -2530.5708    6917.6807    22.442104 
    2230    6637.8794     213.6453   -2542.8094    5397.6504    22.540735 
    2240    6462.6568    208.00563   -2537.7811    9517.8361    22.693735 
    2250    6236.3943    200.72319   -2531.0666    5213.7133    22.877343 
    2260    6426.3757    206.83789   -2537.7125   -3704.6944    23.036241 
    2270    6651.2711    214.07632    -2545.474    -7718.217    23.144913 
    2280    6513.1468    209.63069   -2541.5588   -1574.3167    23.224527 
    2290    6055.0687    194.88708   -2527.2879    3362.9569    23.301956 
    2300    5953.4509    191.61644   -2524.4152    1763.4748    23.386903 
    2310    6287.3259    202.36247    -2535.501   -4324.5487    23.479295 
    2320    6442.7021    207.36337   -2540.7958   -9820.5877      23.5735 
    2330    6550.4137    210.83015   -2544.5636   -5327.4432    23.661925 
    2340    6310.8156     203.1185   -2537.1494   -2794.4547    23.738047 
    2350    5910.2512    190.22602   -2524.4789   -8725.3659    23.801472 
    2360     6323.416    203.52405   -2537.9745   -19230.125    23.858051 
    2370    6607.1791    212.65719   -2547.2725   -20640.674    23.928275 
    2380    6371.5499    205.07328   -2539.8486   -13826.737    24.025776 
    2390    6152.8116    198.03302    -2532.946   -7073.9387    24.136185 
    2400    6426.0322    206.82683     -2541.87   -13571.154    24.237797 
    2410    6482.9072     208.6574   -2543.8004   -12382.316    24.324233 
    2420    6414.2932      206.449   -2541.6904   -14449.664    24.398094 
    2430    6553.8675    210.94131    -2546.297   -24426.047    24.470183 
    2440    6614.1599    212.88187   -2548.3537   -12745.552    24.551077 
    2450    6669.8569    214.67452   -2550.3194   -339.80181    24.637145 
    2460    6225.3299    200.36707   -2536.1812   -4243.6024    24.712237 
    2470    5872.8789    189.02316   -2524.9435   -13099.983    24.762707 
    2480    6512.2552    209.60199   -2545.6296   -20384.707    24.785844 
    2490    6651.1612    214.07278   -2550.1777   -9540.9686    24.788378 
    2500    6008.3212    193.38248   -2529.5601    2344.1923    24.778017 
    2510    5731.1595    184.46182   -2520.6748   -8135.6308    24.769833 
    2520    5901.2138    189.93515   -2526.0911   -24231.232    24.789978 
    2530    6101.1985    196.37181   -2532.3869   -22176.318    24.859277 
    2540    5972.6076    192.23301   -2528.0313   -13102.994      24.9698 
    2550      5738.06    184.68392   -2520.1853   -5667.0359    25.084892 
    2560    5991.9164    192.85448   -2527.9707     1032.972    25.172631 
    2570    6512.7074    209.61654   -2544.2535    6058.3192    25.226981 
    2580    6294.4618    202.59214   -2536.6649    10926.366     25.26599 
    2590    5951.3492    191.54879   -2525.0415    6328.9741    25.311998 
    2600    6276.7707    202.02274   -2534.8873   -2859.6964     25.38611 
    2610    6468.1701    208.18307   -2540.2911    -9468.516    25.500829 
    2620    6619.4945    213.05357   -2544.3753    -16418.41    25.645023 
    2630    6497.1476    209.11574   -2539.6169   -11995.092    25.793753 
    2640    6360.2403    204.70927    -2534.392   -2269.8805    25.911786 
    2650    6433.0149    207.05158   -2535.8743    5183.8554    25.983654 
    2660    6576.9048    211.68279   -2539.5912    3711.2986    26.035303 
    2670     6483.811    208.68649   -2535.6386    12568.056    26.100993 
    2680     6318.878    203.37799   -2529.3578    16549.437    26.187794 
    2690    6576.5171    211.67031   -2536.6271    16466.567    26.287002 
    2700    7057.0641    227.13708   -2551.0132    17558.448    26.400143 
    2710    6653.3759    214.14407   -2536.9143    27234.301    26.516955 
    2720    6673.2872    214.78493   -2536.5371    30047.225    26.607655 
    2730    7309.7909    235.27129   -2556.0008    24121.163    26.670579 
    2740     6932.198    223.11817   -2542.8297    26636.029    26.728023 
    2750    6394.3347    205.80662   -2524.6369    38918.434    26.779431 
    2760     6632.292    213.46547   -2531.4594    45037.127     26.81066 
    2770    6810.7357    219.20881   -2536.3178    35480.624    26.838932 
    2780     6439.037     207.2454   -2523.4692    27181.602    26.886355 
    2790    6813.5644    219.29986   -2534.6904    23648.437    26.953329 
    2800    7271.3135    234.03287   -2548.5615    15088.884    27.039069 
    2810     7068.943    227.51942   -2541.2428    7606.3768    27.140461 
    2820    6979.5339    224.64171   -2537.7211    366.33559    27.237226 
    2830    6518.1213    209.79079   -2522.2802    3969.7516    27.306757 
    2840    6302.4765     202.8501   -2514.8069    13814.371     27.32818 
    2850    6494.7555    209.03875   -2520.4335    24280.135    27.302535 
    2860    6806.9221    219.08607    -2529.894    26861.428    27.258155 
    2870     6876.804    221.33527   -2531.5788    28681.508    27.212231 
    2880    6576.0307    211.65465   -2521.3629    28977.236    27.171067 
    2890    6889.1705     221.7333    -2530.983    19724.168    27.151506 
    2900    7061.0505    227.26539   -2536.0744    9303.7677    27.177073 
    2910    6861.5402      220.844   -2529.2894    16389.225    27.247214 
    2920    6841.4915    220.19871   -2528.3704    35279.609    27.340725 
    2930    7011.6779     225.6763   -2533.6645    49187.418    27.425013 
    2940    6903.5285    222.19542   -2530.0765    54720.199    27.486974 
    2950     6665.211    214.52499   -2522.3914    52474.695     27.53774 
    2960      6682.64    215.08595   -2523.0162    43060.934    27.593303 
    2970    6639.2142    213.68826    -2521.739    23594.684    27.669888 
    2980    6461.6097    207.97192   -2516.1883    7197.8224    27.773001 
    2990    6518.7059    209.80961   -2518.2536   -1100.8931    27.900104 
    3000    6511.9821     209.5932   -2518.3024    5755.4572    28.037857 
    3010    6615.0078    212.90916   -2521.9418    24020.084     28.15214 
    3020    6946.7029    223.58503   -2533.0713    35567.534    28.218314 
    3030    6806.2602    219.06477   -2529.1185    31157.842    28.246197 
    3040    6726.2792    216.49052   -2527.2413    19626.764    28.258325 
    3050     6899.139    222.05414   -2533.6696    4918.9913    28.273803 
    3060     6875.098    221.28036   -2533.9164    3278.4904    28.290551 
    3070    6912.8614    222.49581   -2536.3551    10251.921    28.301664 
    3080    6778.1467    218.15991   -2533.4151    12657.799    28.319974 
    3090    6587.4877     212.0234   -2528.8053    11128.862    28.368163 
    3100    6453.7727    207.71968   -2526.0961    7358.2781     28.46648 
    3110    6799.5794    218.84974   -2538.9745   -2891.1467    28.610641 
    3120     6947.442    223.60881   -2545.6891   -5178.3508     28.76557 
    3130    6583.4729    211.89418    -2536.007     2727.538     28.89108 
    3140    6310.9008    203.12124   -2529.2036    13728.034    28.951117 
    3150    6540.9912    210.52688   -2538.5677    18115.649    28.922428 
    3160    6983.8395    224.78029   -2554.9048    20883.627    28.827216 
    3170    6764.4302    217.71844   -2549.9793    23155.746    28.738003 
    3180    6153.7928     198.0646   -2532.2473    11232.683      28.7118 
    3190    6196.3936    199.43574   -2535.3498   -1726.2414    28.752269 
    3200    6607.8403    212.67847   -2550.2692   -5265.5746    28.825774 
    3210    6747.6296    217.17769   -2556.4488    7543.7552    28.867946 
    3220    6349.4049    204.36052   -2545.1707    30404.517    28.835906 
    3230    6242.3848      200.916   -2543.1004    39517.852    28.744411 
    3240    6508.3395    209.47596   -2552.9567    32682.778     28.64855 
    3250    6548.8532    210.77992   -2555.5014    17648.789    28.611612 
    3260    6284.7494    202.27954   -2548.1552    5531.5983    28.661732 
    3270    5934.8965    191.01925   -2537.8854    -762.4739     28.78742 
    3280    6342.1623    204.12742   -2551.8916   -11314.741    28.947686 
    3290    6965.0613     224.1759   -2572.9039   -17408.085    29.095524 
    3300    6588.5002    212.05599   -2561.7228   -5228.0508    29.195784 
    3310    6439.5557     207.2621   -2557.8665   -3572.0577    29.236769 
    3320    6417.0609    206.53809   -2558.0525   -6437.2564    29.238318 
    3330    6246.9964    201.06443   -2553.4145    -6971.023    29.227214 
    3340    6563.2632    211.24372   -2564.4348   -6935.5568    29.224808 
    3350    6794.7489    218.69427   -2572.7771   -8863.4779    29.236695 
    3360    6478.7183    208.52258   -2563.5038   -15688.769     29.26373 
    3370    6364.8085     204.8563   -2560.7133   -17934.858     29.31456 
    3380    6613.3373    212.85539   -2569.6165   -16376.103    29.399173 
    3390    6548.0636    210.75451   -2568.4472   -5180.3311    29.519212 
    3400    6176.6218    198.79937   -2557.3819    1615.4429    29.659701 
    3410    6098.5522    196.28664   -2555.7204   -4347.4693    29.793718 
    3420    5960.0039    191.82735   -2552.0397    -8252.864    29.896073 
    3430    5919.3688    190.51948   -2551.4296   -12954.618    29.937517 
    3440    6082.0501     195.7555   -2557.3236   -14944.398    29.923625 
    3450    6058.5412    194.99885   -2557.1735   -10008.756    29.900525 
    3460    6084.6187    195.83818   -2558.5809   -9092.6482    29.895232 
    3470    6415.6364    206.49224   -2569.8141   -20750.631    29.920137 
    3480    6289.8724    202.44443   -2566.3668   -18420.296     29.98137 
    3490    5692.7512    183.22562   -2547.6568   -8379.2162     30.05594 
    3500    5951.0198    191.53819   -2556.4423   -10624.286    30.113953 
    3510    6371.4446    205.06989   -2570.4332   -21331.505    30.162755 
    3520    6156.7109    198.15852   -2563.9585   -22277.693    30.216604 
    3530    6124.7768     197.1307    -2563.372   -20014.144    30.262603 
    3540    6292.0999    202.51612   -2569.1974   -10087.874    30.281458 
    3550    6421.0593    206.66678   -2573.7924   -3989.1982    30.279721 
    3560    6694.4782    215.46698    -2583.119   -2705.2956    30.281662 
    3570    6507.3599    209.44443   -2577.6739   -5275.1611    30.298857 
    3580    6141.2252     197.6601   -2566.4937   -15563.813    30.322111 
    3590    5998.4543    193.06491   -2562.4615    -22660.92     30.34049 
    3600    6347.2726    204.29189   -2574.2899   -24771.012    30.361269 
    3610    6238.3694    200.78676   -2571.3707   -13896.071    30.388563 
    3620     5983.997    192.59959   -2563.7697    -8860.783    30.410674 
    3630    5955.1622    191.67152   -2563.3852   -15125.904    30.426588 
    3640    6066.4835    195.25448   -2567.5037   -21844.621    30.429059 
    3650    5925.5768    190.71929   -2563.4498   -27428.467    30.402931 
    3660    6142.4791    197.70046   -2570.9128   -27837.992    30.356871 
    3670    6305.2148    202.93823    -2576.643   -23677.742    30.331248 
    3680    6096.1421    196.20907   -2570.4068   -21591.791    30.365348 
    3690    5928.9194    190.82687   -2565.5025   -23961.463    30.463032 
    3700    5899.3765    189.87601   -2564.9949   -30361.264    30.586624 
    3710    5798.7507    186.63729   -2562.1591   -41791.498    30.693068 
    3720    5694.8606    183.29351   -2559.1404   -50445.256    30.764077 
    3730    5872.5696    189.01321    -2565.165   -46295.874    30.806927 
    3740    5715.3889    183.95423   -2560.3252   -41905.866    30.839162 
    3750    5784.0076    186.16277   -2562.7181   -43383.542    30.869152 
    3760     5939.367    191.16314   -2567.8502   -48116.092    30.908556 
    3770    5876.7772    189.14864   -2565.9245   -40461.724    30.962665 
    3780    5663.8882    182.29664   -2559.1135   -32284.921    31.006199 
    3790    5594.7311    180.07076   -2556.8606   -37797.748    31.017645 
    3800    5738.1933    184.68821   -2561.3805   -39362.784    31.007784 
    3810    5884.4402    189.39527   -2565.9152   -33146.633     30.99156 
    3820    5938.9514    191.14976   -2567.4397   -30239.853    30.969423 
    3830     5975.179    192.31577   -2568.3341   -29079.097    30.934097 
    3840    5928.0568    190.79911   -2566.5033       -23028    30.891563 
    3850    5803.3778    186.78622   -2562.1226   -19371.614    30.860755 
    3860    5979.8453    192.46596   -2567.3907   -24981.569    30.851319 
    3870    5988.3054    192.73826   -2567.1782   -30500.014    30.861006 
    3880    5814.0602    187.13004   -2561.0325   -25107.801    30.873458 
    3890    5912.4232    190.29593   -2563.6228   -11002.519    30.875101 
    3900    5812.5885    187.08267   -2559.7276    3438.0833    30.874996 
    3910    5960.7679    191.85194   -2563.7538    6005.1548    30.885172 
    3920    6398.3966    205.93736   -2577.0033    4192.3853    30.908389 
    3930    6277.7254    202.05346   -2572.2189    12240.583    30.947402 
    3940     5842.109    188.03281   -2557.3077    14534.195    30.993507 
    3950    6025.0039    193.91943   -2562.2811    7290.0356     31.03351 
    3960    6351.7448    204.43584   -2571.7706    582.14404    31.068214 
    3970    6317.7184    203.34067   -2569.5841    3089.4277    31.092534 
    3980    6276.4268    202.01167   -2567.1778    7901.4852    31.112962 
    3990     6102.973    196.42892   -2560.5066    21339.895    31.161533 
    4000    5857.0087    188.51237   -2551.4921    30540.438    31.240838 
    4010    6076.7704    195.58557   -2557.4192     21745.39      31.3257 
    4020    6497.1768    209.11668   -2569.6966    13087.541    31.407849 
    4030    6558.7171     211.0974   -2570.3705    9197.9746    31.486126 
    4040    6552.7569    210.90557   -2568.9353    11653.987    31.574838 
    4050    6507.9102    209.46214      -2566.3    19406.063    31.701957 
    4060    6545.5322    210.67303   -2566.3869    22678.583    31.876978 
    4070    6434.6541    207.10434   -2561.7431    28493.707    32.081352 
    4080     6497.853    209.13844   -2562.7696    28860.823    32.272108 
    4090    6818.3234    219.45303   -2572.1189    18922.471    32.410768 
    4100    6821.0909     219.5421    -2571.321    8282.8777    32.500528 
    4110    6529.2914    210.15031   -2561.1689    2760.3682    32.572602 
    4120    6512.6552    209.61486   -2559.9924   -3099.2735    32.648483 
    4130    6457.3761    207.83566   -2557.6231   -12581.993    32.729981 
    4140    6470.0285    208.24289   -2557.5145   -25824.899    32.813148 
    4150    6495.8569    209.07419   -2557.8822   -36592.222    32.887401 
    4160    6551.8644    210.87684   -2559.2983   -37334.304    32.938938 
    4170     6370.873    205.05149   -2553.1394   -28294.232     32.95758 
    4180    6369.2617    204.99963   -2552.8217   -19259.678    32.941914 
    4190     6416.791     206.5294   -2554.1432   -15447.721    32.912715 
    4200     6090.097     196.0145   -2543.4305   -486.56108    32.894968 
    4210    6291.2936    202.49017   -2549.7689    8599.6157    32.893227 
    4220     6430.705    206.97723   -2554.1127    2956.6017    32.902544 
    4230    6635.0879    213.55545    -2560.625    2404.7869    32.911302 
    4240    6676.1542     214.8772   -2561.9847    6512.2157     32.91804 
    4250    6089.9588    196.01005   -2543.2011    4043.4906    32.919014 
    4260    6081.1451    195.72637    -2543.072   -13266.612    32.899899 
    4270    6169.7937     198.5796   -2546.0829   -16700.762    32.854672 
    4280    6065.4514    195.22126   -2542.8944   -4758.1332    32.804306 
    4290    6324.9313    203.57282   -2551.4529   -1552.7827    32.794011 
    4300    6776.8693     218.1188   -2566.3156   -7198.4572    32.846115 
    4310    6669.1967    214.65327   -2563.2931   -17857.012    32.943151 
    4320    6342.4359    204.13622   -2553.3634   -30730.839    33.065819 
    4330     6211.106    199.90927   -2549.8118   -39909.259    33.198732 
    4340    6472.5552    208.32421   -2559.0486    -40210.87    33.326197 
    4350    6397.3136     205.9025   -2557.5988   -24363.029    33.432641 
    4360    6178.8279    198.87037   -2551.6614   -6467.2466    33.503337 
    4370    6193.0292    199.32745   -2553.3557    1140.7112    33.551423 
    4380    6375.8537     205.2118   -2560.6288   -2701.2944    33.616299 
    4390    6590.0037    212.10438   -2569.1976   -8060.7238    33.726029 
    4400    5956.7922    191.72398   -2550.5911   -2541.1061    33.876381 
    4410    5477.9805    176.31305   -2536.8776    62.500624    34.025872 
    4420    5733.9272     184.5509   -2546.8087    -5073.553    34.135394 
    4430    6235.6254    200.69844   -2564.8189   -8268.6331    34.210501 
    4440    6143.2394    197.72493   -2563.8133   -18453.322    34.275423 
    4450    5712.6477      183.866   -2551.8269   -23336.647    34.345346 
    4460    5766.5834    185.60196   -2555.3152   -23856.396    34.431077 
    4470    6212.3486    199.94926   -2571.4455   -30598.056      34.5375 
    4480    6211.0786    199.90838   -2573.2008   -31283.095    34.660554 
    4490    5754.1825    185.20283   -2560.1392   -18421.099    34.789563 
    4500    5501.9138    177.08337   -2553.4225   -3845.0821    34.919895 
    4510    5868.0295    188.86709   -2566.4872   -4312.7395    35.035981 
    4520    6173.3584    198.69433    -2577.553    -10823.36    35.122075 
    4530    6194.8262    199.38529   -2579.4146   -18998.589    35.173807 
    4540    6361.1487    204.73851   -2585.9068   -22928.878    35.199041 
    4550    6467.3003    208.15508    -2590.465   -11860.588    35.217452 
    4560    6168.4945    198.53778   -2581.9216    800.13531     35.24599 
    4570    6090.5294    196.02841   -2580.4129    3839.3318    35.302475 
    4580    5973.2183    192.25267   -2577.5655    5714.0884    35.395401 
    4590    5747.0336    184.97274   -2571.0719      3066.71     35.51591 
    4600    6068.8405    195.33034   -2582.1898   -7715.9566    35.663546 
    4610     5884.168    189.38651   -2576.9399    -13462.13    35.837563 
    4620    5431.7179    174.82406   -2562.9396    -11862.77    36.007834 
    4630    5660.9395    182.20173   -2570.7974   -12787.791    36.129917 
    4640    6100.5948    196.35238   -2585.3936   -7599.7966    36.190065 
    4650    5949.3815    191.48546   -2580.9468    2871.0428    36.214481 
    4660    5540.1182      178.313   -2568.1338    7826.2017    36.234841 
    4670    5683.0729    182.91411   -2573.0376    919.48313    36.265664 
    4680    6057.1206    194.95313   -2585.3474   -8538.8348    36.316591 
    4690    6028.8257    194.04244   -2584.7039   -3027.2337     36.39701 
    4700    5735.9957    184.61747   -2575.5122    2698.2319    36.509494 
    4710    5927.6243    190.78519   -2581.9206    5329.1507    36.627665 
    4720    5921.9663    190.60308   -2581.9511     9174.888    36.722838 
    4730    5718.7684      184.063   -2575.5919    10776.221    36.780694 
    4740    5992.5075     192.8735   -2584.5789    2078.9899    36.799872 
    4750     6403.022    206.08623   -2597.9901   -10575.252    36.791566 
    4760    6258.3286    201.42916   -2593.5992   -6035.7621    36.773335 
    4770    5567.0207    179.17888   -2571.5893    3643.7796    36.757503 
    4780    5734.6006    184.57257   -2577.2222    3507.4578    36.747563 
    4790    6046.2065    194.60185   -2587.4677    714.86421    36.752332 
    4800     5955.325    191.67676   -2584.7421    947.07297    36.791031 
    4810    6009.0278    193.40522   -2586.7027   -499.30971    36.876168 
    4820    5910.0291    190.21887   -2583.7485   -1518.2745    37.005063 
    4830    5735.6314    184.60575   -2578.3513    257.91081    37.170178 
    4840    5712.9705    183.87639   -2577.8308    1302.3205    37.341096 
    4850    5534.2527    178.12422   -2572.2255   -2350.2647    37.477068 
    4860    5649.7226    181.84071   -2576.0524   -8403.9553    37.560797 
    4870    5913.5776    190.33309   -2584.6301   -8213.7924    37.592554 
    4880    5815.1972    187.16663   -2581.5249   -141.82247    37.605216 
    4890    5687.0696    183.04275   -2577.4544    7935.1651    37.642042 
    4900     5716.296    183.98342   -2578.4198    4366.3968    37.724997 
    4910    5810.0778    187.00186   -2581.4386   -2366.0815    37.847476 
    4920    5732.3434    184.49992   -2578.8976    -10345.93    37.976097 
    4930    5935.9657    191.05366   -2585.4088   -15900.847    38.067129 
    4940    6171.5319    198.63554   -2592.9535   -17155.571    38.103863 
    4950    5952.3626    191.58141   -2585.8868   -322.65172    38.109945 
    4960    5635.8124      181.393   -2575.6856     17190.51    38.131118 
    4970    5715.7431    183.96563   -2578.2323     26190.47    38.184967 
    4980    5967.6204    192.07249   -2586.2824    21680.117     38.25856 
    4990    6080.5562    195.70742   -2589.8651    9395.9789    38.339258 
    5000    5907.2401    190.12911   -2584.2509    11262.655    38.416785 
    5010    5819.6915    187.31129   -2581.4011    15678.279    38.467012 
    5020    6205.3346    199.72351   -2593.8017    4560.9067    38.471587 
    5030    6366.3429    204.90569   -2599.0137   -5607.6818    38.442409 
    5040    6042.0362    194.46762    -2588.653   -5563.5712    38.403828 
    5050    5930.5378    190.87896    -2585.211   -2699.2811    38.381071 
    5060    5759.5305    185.37496   -2579.8346    3324.0817    38.400114 
    5070    5968.9327    192.11473   -2586.7339   -1446.5334    38.468944 
    5080    6016.1197    193.63348   -2588.4311    8734.3768    38.564721 
    5090    5612.5126    180.64307   -2575.6154     25172.74    38.646052 
    5100    5508.8535    177.30672   -2572.4534    19474.096     38.68303 
    5110    5468.0523    175.99351   -2571.2612    10119.059    38.678576 
    5120    5439.5042    175.07466   -2570.3953    16754.487    38.653109 
    5130     5912.504    190.29853   -2585.6462    20359.368    38.627123 
    5140    6257.1397     201.3909   -2596.7795    16390.137    38.618642 
    5150     5791.884    186.41628   -2581.8654    20588.955    38.634644 
    5160    5448.0771    175.35059   -2570.8606    22221.703    38.671635 
    5170    5773.4758     185.8238   -2581.3924    18388.191    38.721911 
    5180    5763.3674    185.49845   -2581.0687    22850.106    38.775773 
    5190    5734.1419    184.55781    -2580.124    28930.841    38.811978 
    5200    5927.6569    190.78624   -2586.3459    28953.459    38.824398 
    5210    6042.1448    194.47112   -2590.0268    23492.407    38.837368 
    5220    5961.6438    191.88013   -2587.4864    14077.382    38.877202 
    5230    5385.1439    173.32504   -2568.9401    14049.033    38.952961 
    5240    5597.5447    180.16132   -2575.7916    7285.1408    39.061225 
    5250    5841.4067    188.01021   -2583.5984     1655.516    39.182831 
    5260    5541.0989    178.34457   -2573.8466    11426.132    39.291277 
    5270    5619.9329     180.8819   -2576.2995    15973.269      39.3659 
    5280    5598.3963    180.18873   -2575.4585    18361.929    39.415699 
    5290    5483.0535    176.47633   -2571.5431    18017.146    39.466599 
    5300    5817.6506     187.2456   -2582.0812     13488.54     39.53268 
    5310     5812.667     187.0852   -2581.6359     18859.92     39.60959 
    5320    5437.5647    175.01224   -2569.2449    20060.529    39.681861 
    5330    5596.5988    180.13088   -2574.0115    21989.736    39.729565 
    5340    6147.2973    197.85553   -2591.3221     28540.41    39.745834 
    5350    6112.3682    196.73131   -2589.7579    30677.024    39.750002 
    5360    5734.5542    184.57108   -2577.1831    25512.168    39.792123 
    5370    5844.4076    188.10679   -2580.3287    15627.199    39.912183 
    5380    5982.0425    192.53668   -2584.3326    12392.831    40.099409 
    5390     5850.438    188.30089   -2579.6689    16872.159    40.304404 
    5400    5714.2299    183.91692   -2574.8467    26811.121    40.467958 
    5410    6015.5792    193.61608   -2584.1117    31512.584    40.554248 
    5420     5945.287    191.35367   -2581.3814    31201.629    40.575012 
    5430    5685.8813     183.0045   -2572.5919    24602.707    40.567477 
    5440    5584.8121    179.75151   -2568.8715    17718.489    40.556681 
    5450    5943.8841    191.30852   -2579.9374    14502.076    40.557259 
    5460    6029.0473    194.04957   -2582.1536    11566.085    40.569699 
    5470    5545.2282    178.47747   -2566.0526    14253.826    40.576103 
    5480    5580.4565    179.61132   -2566.6874    8098.5107    40.571709 
    5490    5691.3177    183.17948   -2569.6693    572.36286    40.592438 
    5500    5734.4704    184.56838   -2570.4319    1926.4868     40.67977 
    5510    5892.2413    189.64636   -2574.8583    6836.1645    40.823291 
    5520    5888.8095     189.5359   -2574.0781    8425.7757     40.96595 
    5530    5766.4532    185.59777   -2569.4725    3968.6138    41.064681 
    5540    5776.7707    185.92985   -2569.1389   -3309.1991    41.129507 
    5550    5818.2559    187.26508    -2569.783    -2891.491    41.191058 
    5560    5889.2254    189.54929   -2571.3652    1244.4353     41.26183 
    5570    5982.2046     192.5419   -2573.6538    7503.7834    41.347907 
    5580    5981.9287    192.53302   -2572.9499    14163.615    41.449349 
    5590    5931.9203    190.92346   -2570.6692    18181.729    41.557187 
    5600    6048.0679    194.66176   -2573.7663    23563.321    41.663989 
    5610    6062.6253     195.1303   -2573.6094    28736.027    41.773725 
    5620    6051.0719    194.75845   -2572.6537    28289.905    41.870507 
    5630    6066.4651    195.25389   -2572.6157     25822.32    41.933684 
    5640    5925.2678    190.70934   -2567.5636    23402.895    41.977866 
    5650    6145.2043    197.78817   -2574.1819    14494.655     42.03794 
    5660    6410.4687    206.32591   -2582.3031    8346.7288    42.131708 
    5670    6276.6491    202.01882   -2577.6538    10155.832    42.244719 
    5680    6153.0668    198.04123   -2573.4533    11754.763    42.367383 
    5690     5925.848    190.72802   -2565.9717    14989.436    42.495064 
    5700     5860.805    188.63456   -2563.7565     15770.66    42.610395 
    5710    5994.2742    192.93037   -2567.9539    5949.4739    42.708742 
    5720    6070.8368     195.3946   -2570.3581   -286.24825    42.793934 
    5730    5945.9817    191.37604    -2566.324    8982.6334    42.853329 
    5740     5925.433    190.71466   -2565.6895    16561.054    42.897364 
    5750    6163.8521    198.38836    -2573.445    12198.936    42.966163 
    5760    6265.4572     201.6586   -2576.8748    12459.435    43.073471 
    5770    6125.8518     197.1653   -2572.6363    11318.526    43.197248 
    5780    5918.8767    190.50364   -2566.3058    6338.6993    43.302599 
    5790    5815.7212     187.1835    -2563.345    2519.0055    43.345531 
    5800    6114.0207     196.7845   -2573.3904   -3806.3549    43.306214 
    5810    6118.8762    196.94078    -2574.063   -7522.0847    43.208918 
    5820    6073.8146    195.49044   -2573.2254   -8064.1212    43.093703 
    5830     6182.694     198.9948   -2577.4695   -8828.8703     42.99068 
    5840    6058.7365    195.00514   -2574.3065   -1810.4746    42.923448 
    5850    6143.1083    197.72071   -2577.9682    12226.376    42.894232 
    5860    6232.6523    200.60275   -2581.9462     24070.98    42.878458 
    5870    6080.4539    195.70413   -2578.2394    20581.292     42.85569 
    5880    6313.9632    203.21981   -2587.0929    3531.3107    42.827247 
    5890    6597.5185    212.34625   -2597.8131   -8724.8181    42.809644 
    5900    6057.6357    194.96971   -2582.1298    4254.0919    42.808588 
    5910    5765.3846    185.56338   -2574.3703     12877.26    42.825274 
    5920    6171.5656    198.63663   -2589.1912    9794.4303    42.850945 
    5930     6182.291    198.98184   -2591.3889    5751.3983    42.866488 
    5940    5795.8946    186.54537   -2580.7478    163.27514    42.870087 
    5950    5623.9352    181.01072   -2576.8891   -4980.1056    42.883574 
    5960    5701.4261    183.50482   -2580.9492   -10751.202    42.946765 
    5970    5864.1041    188.74074   -2587.7111   -11176.109    43.075394 
    5980    5657.7162    182.09799   -2582.4863   -9446.8266    43.235898 
    5990    5365.1186    172.68051   -2574.3055   -12070.094    43.384411 
    6000    5477.6657    176.30292   -2578.9964   -10685.324    43.489023 
    6010    5856.0736    188.48228   -2592.2049   -8823.4751    43.534057 
    6020     5734.619    184.57316   -2589.2413   -11231.306    43.523165 
    6030    5560.8298    178.97962   -2584.4911   -21638.824    43.485263 
    6040    5826.8861    187.54285   -2593.8265   -31503.062    43.468929 
    6050    6140.3724    197.63265   -2604.7216   -31374.369     43.49713 
    6060    5717.1873    184.01211   -2591.8365   -14412.488    43.559932 
    6070     5818.552    187.27461   -2595.7911   -4091.8153    43.636468 
    6080    6477.7781    208.49232   -2617.7781    -8193.294    43.704373 
    6090    6297.0975    202.67697   -2612.7896   -6859.8802    43.749427 
    6100    5852.5806    188.36985   -2599.2995   -2302.7944    43.767817 
    6110    5909.1368    190.19015   -2601.9371    -8536.556    43.771356 
    6120    5932.9699    190.95724   -2603.5087   -10782.546    43.763325 
    6130    5759.6944    185.38023   -2598.7198   -3554.5485     43.73312 
    6140    5548.7579    178.59108   -2592.6618    -303.8123    43.684264 
    6150    5489.5934    176.68682   -2591.4299   -6706.1093    43.649248 
    6160     5538.261    178.25323   -2593.6077    -12154.54    43.666325 
    6170    5849.8009    188.28038   -2604.2347   -15940.217    43.738521 
    6180    6019.9107     193.7555   -2610.3561   -18710.406    43.836336 
    6190    5733.6907    184.54328     -2601.78   -17574.579    43.926053 
    6200    5815.5204    187.17704   -2605.0703   -11870.039    43.987305 
    6210    5864.5199    188.75412   -2607.3229   -981.53658    44.019878 
    6220    5606.8756    180.46164   -2599.6856    4723.0982    44.039417 
    6230    5420.7801    174.47201   -2594.3269    2904.2192    44.062609 
    6240    5184.9101    166.88035   -2587.2805   -1592.4401    44.088102 
    6250    5184.8743     166.8792   -2587.7404   -8617.7489    44.104521 
    6260    5505.7188    177.20583   -2598.4929   -13631.582    44.103577 
    6270    5578.0142    179.53272   -2601.2231   -11560.506    44.093024 
    6280    5471.4184    176.10185   -2598.1586   -11484.848    44.121871 
    6290    5667.5914    182.41583   -2604.8589   -12922.276    44.239394 
    6300    5641.2407    181.56771   -2604.3758   -14838.437    44.432025 
    6310    5620.5274    180.90104   -2604.0894   -16393.632    44.638947 
    6320    5621.6242    180.93634   -2604.5065   -21200.933    44.814915 
    6330    5525.6827    177.84839   -2601.8004   -24194.908    44.932075 
    6340     5308.164    170.84738    -2595.143   -16054.053    44.983744 
    6350    5462.6748    175.82043   -2600.4346   -9729.3311    44.978984 
    6360    5661.6049    182.22315   -2607.1574   -8747.8001    44.932877 
    6370    5436.6063    174.98139   -2600.2067   -9897.7212    44.870394 
    6380    5478.2685    176.32232   -2601.8448   -15845.115    44.823094 
    6390    5616.3386    180.76622    -2606.574   -17213.128    44.821968 
    6400    5623.5879    180.99954    -2607.103   -12123.599    44.872738 
    6410    5370.5891    172.85658    -2599.247   -5654.2651    44.956091 
    6420    5300.9373    170.61478   -2597.2462   -2429.6659    45.047548 
    6430    5822.1889    187.39167   -2614.2927     -10846.3    45.120529 
    6440     5830.346    187.65421   -2614.8465   -9073.7557    45.162711 
    6450    5372.5255     172.9189    -2600.402   -144.83589    45.175384 
    6460    5438.8562    175.05381   -2602.8377    715.74971     45.16449 
    6470    5743.4617    184.85777   -2612.9401    2367.3985    45.144852 
    6480    5833.8899    187.76827   -2616.1975    11331.846     45.13557 
    6490     5469.721    176.04721   -2604.8375    16380.591    45.146783 
    6500    5297.3267    170.49857   -2599.6424    7549.6227    45.174141 
    6510    5487.6872    176.62547   -2606.1085   -11017.611    45.210877 
    6520    5704.3068    183.59754   -2613.4329   -22705.827    45.249442 
    6530    5585.3777    179.76972   -2609.9882   -25267.195    45.289927 
    6540    5312.4998    170.98693   -2601.5694   -19931.372    45.343265 
    6550    5408.1096     174.0642   -2605.0294   -15285.918    45.404075 
    6560    5136.4516    165.32068   -2596.6201   -10097.875    45.444463 
    6570    4878.3874    157.01468   -2588.5743   -10206.757    45.445787 
    6580    5254.5629    169.12218   -2600.9049   -15885.222     45.42105 
    6590    5535.4772    178.16363   -2610.1332   -20282.957    45.403084 
    6600    5365.9027    172.70574   -2604.8509   -19366.875    45.398728 
    6610    5224.4898    168.15426    -2600.448   -17716.769    45.386875 
    6620    5475.4988    176.23318   -2608.6753   -15702.629    45.357375 
    6630    5586.4275    179.80351   -2612.3739   -10050.038    45.323458 
    6640    5556.7139    178.84715   -2611.5714   -4574.1936    45.284212 
    6650    5348.6625    172.15085   -2605.0258   -1459.5087    45.229456 
    6660    5330.2591    171.55852   -2604.5738   -4057.4089    45.175128 
    6670    5527.4029    177.90375   -2611.0617   -20842.743    45.132175 
    6680    5373.6482    172.95504   -2606.2373   -34315.208     45.08812 
    6690    5145.1498    165.60064   -2598.9908   -37830.456    45.036147 
    6700    5202.2376    167.43806   -2600.9043   -31614.359    44.987474 
    6710    5338.0522    171.80935   -2605.3081    -26373.23    44.957831 
    6720    5444.3043    175.22916   -2608.7343   -25290.843    44.969415 
    6730    5499.2629    176.99804   -2610.5047   -22204.541    45.034264 
    6740    5356.1534    172.39195   -2605.8879   -21437.879    45.125603 
    6750    5189.8017     167.0378   -2600.5003   -27509.449    45.202075 
    6760    5285.4122    170.11509   -2603.5022   -26618.239    45.244262 
    6770    5472.7434    176.14449    -2609.435   -20803.877    45.266827 
    6780    5092.6918    163.91224   -2597.0427    -16338.13    45.309476 
    6790    4936.3403    158.87994   -2591.8125   -12927.791    45.401771 
    6800    5324.6481    171.37793   -2604.0279   -12810.342    45.544395 
    6810    5692.7635    183.22601   -2615.5141   -13252.444    45.707841 
    6820    5644.7735    181.68141    -2613.575   -16246.105    45.845358 
    6830    5490.5771    176.71848   -2608.2317    -16734.46    45.916141 
    6840    5528.1921    177.92915   -2609.0392   -13012.453    45.911564 
    6850    5851.3899    188.33153   -2619.0398   -8746.2857    45.863295 
    6860    5608.0086    180.49811   -2610.7792   -3552.4361    45.811251 
    6870    5384.3929    173.30086   -2603.1892    -587.0004    45.786833 
    6880    5553.9303    178.75756   -2608.2359   -8643.4279    45.811607 
    6890    5699.7342    183.45037   -2612.4863   -24248.648    45.893349 
    6900    5570.3796    179.28699   -2607.8748    -37564.59     46.00555 
    6910    5517.1979     177.5753    -2605.724   -41443.309    46.102758 
    6920    5695.9063    183.32717   -2611.0488   -30772.658    46.155765 
    6930    5393.2241     173.5851   -2600.8451   -15448.316    46.169276 
    6940    5381.7863    173.21697   -2600.0295   -16930.142    46.174837 
    6950    5803.6311    186.79437   -2613.1329   -29999.198    46.209785 
    6960    5750.8013      185.094   -2610.9397   -36638.964      46.3121 
    6970     5406.791    174.02176   -2599.4075   -34148.497     46.48127 
    6980    5556.8919    178.85288   -2603.7987   -32147.037    46.662915 
    6990    5874.1557    189.06426   -2613.5574   -31441.596    46.804307 
    7000    5707.3303    183.69486   -2607.7516   -23768.161    46.879721 
    7010    5436.0225     174.9626   -2598.6311   -21792.004    46.896129 
    7020    5575.9713    179.46696   -2602.7636   -35237.415    46.893252 
    7030    5667.0699    182.39904   -2605.3258   -43458.032    46.925168 
    7040    5232.7705    168.42078   -2590.9705   -34454.838    47.023607 
    7050    5070.6539    163.20293   -2585.3833   -25642.142    47.164456 
    7060    5225.3206      168.181   -2589.9295   -26666.752    47.304542 
    7070    5365.7281    172.70012    -2593.953   -27359.235    47.420729 
    7080    5280.3119    169.95094   -2590.6676   -26222.092    47.499672 
    7090    5213.2543    167.79263   -2587.9419   -27357.794    47.539989 
    7100    5406.3624    174.00797   -2593.5557   -31559.404    47.558291 
    7110    5375.1401    173.00306   -2591.8885   -30050.804    47.579573 
    7120    5431.8503    174.82832   -2593.0371   -28307.919    47.612381 
    7130     5774.645    185.86143   -2603.3806   -32103.141     47.65009 
    7140    5624.2564    181.02106   -2597.8323   -30995.399    47.689425 
    7150    5428.9489    174.73493   -2590.8967   -34462.188    47.726521 
    7160    5481.2132     176.4171   -2591.9384   -40694.542    47.770487 
    7170    5662.2584    182.24418   -2597.1158   -39424.631    47.837875 
    7180    5662.6014    182.25522   -2596.4858   -37731.133    47.920963 
    7190    5426.8549    174.66754   -2588.2774   -37139.947    47.989732 
    7200    5641.8741     181.5881   -2594.6209   -32629.489    48.025705 
    7210    5719.1409    184.07499   -2596.5162   -24023.578    48.035354 
    7220    5599.3806    180.22041   -2592.1076    -18379.64     48.04435 
    7230    5707.4505    183.69872   -2595.0746   -30537.426    48.099736 
    7240    5845.8389    188.15286    -2599.056   -34316.202    48.226607 
    7250     5738.418    184.69544   -2595.1659   -29854.108    48.401618 
    7260     5831.249    187.68327   -2597.8071   -22055.054    48.571598 
    7270    5851.5211    188.33575   -2598.1688   -18853.224       48.691 
    7280    5691.6133    183.18899   -2592.8022   -13886.034    48.745468 
    7290    5576.2094    179.47463   -2588.9203   -19922.311    48.759661 
    7300    5697.1976    183.36873   -2592.6921   -31094.885    48.786432 
    7310    5837.5543    187.88622   -2597.1426   -38093.381    48.861365 
    7320    5497.8755    176.95339   -2586.2018    -35333.38    48.969262 
    7330    5048.3445    162.48488   -2571.7202   -27262.166    49.094364 
    7340    5427.9513    174.70282   -2583.9439   -28595.419     49.24405 
    7350    5653.0235    181.94695   -2591.1932   -34223.003     49.40617 
    7360     5063.709     162.9794   -2572.2033   -25784.498    49.541865 
    7370    5141.2077    165.47376   -2574.6943    -26725.45    49.621594 
    7380    5529.0523    177.95684   -2587.1499   -41895.087    49.664301 
    7390    5269.4282    169.60064   -2578.7451   -52837.073    49.712544 
    7400    4920.8885    158.38262   -2567.4722   -47768.668    49.779294 
    7410    5101.3387    164.19054   -2573.1782   -35957.385    49.831527 
    7420    5680.3537    182.82659   -2591.6918   -33827.168    49.830786 
    7430     5477.023    176.28223   -2585.0049   -26805.078    49.771065 
    7440    5211.3729    167.73208   -2576.3274   -25945.063    49.677428 
    7450    5800.4651    186.69247   -2595.2037   -28351.969    49.597099 
    7460    6016.9312     193.6596   -2602.1102   -18740.474    49.590651 
    7470    5742.3529    184.82209   -2593.3144   -1139.8831    49.671336 
    7480    5513.6809     177.4621   -2586.0781    6904.1267    49.791395 
    7490    5600.3934    180.25301   -2589.0406    1979.5394    49.872065 
    7500    5887.6737    189.49935   -2598.5479    608.17913     49.85439 
    7510    5765.7285    185.57445   -2594.9779    12882.684    49.745339 
    7520    5507.3101    177.25705   -2587.0973    20390.139    49.615205 
    7530     5582.911    179.69032   -2590.0515    11002.016     49.56779 
    7540    5656.9301    182.07269    -2593.039    5840.9463    49.653771 
    7550    5625.8416    181.07208   -2592.7543    16455.181    49.822158 
    7560    5352.8305    172.28501   -2584.7462     36801.17    49.983321 
    7570    5195.9923    167.23705   -2580.5011    47050.971    50.067415 
    7580    5424.4821    174.59117   -2588.7031    43928.449    50.041798 
    7590    5841.7398    188.02093   -2603.1355    32703.288    49.934869 
    7600    5669.4366    182.47522   -2598.7358    26016.536    49.820338 
    7610    5080.0297     163.5047   -2580.8936    27574.165    49.760189 
    7620    5352.3337    172.26901   -2590.7952    22882.868    49.781793 
    7630    5942.8231    191.27437   -2611.1383    12723.292    49.890685 
    7640    5695.4852    183.31361   -2604.6157    15616.902    50.075603 
    7650    5489.7211    176.69094    -2599.485    19875.817     50.27794 
    7660    5344.2073    172.00746   -2596.2679    21969.487    50.421082 
    7670    5515.4434    177.51883   -2603.2498    12400.807    50.462991 
    7680    5825.7869    187.50747   -2614.8338    2290.7209    50.428503 
    7690    5400.5851    173.82202   -2602.7066    3079.4273    50.369784 
    7700    5234.5074    168.47668   -2598.7878    2816.2514     50.32068 
    7710    5597.2045    180.15037   -2611.8983   -2120.7774    50.303951 
    7720    5376.7099    173.05358   -2606.1965    5107.3988    50.326812 
    7730    4831.1383    155.49394   -2589.8194    16388.899     50.37049 
    7740    4935.4814     158.8523   -2594.1977    14350.409    50.410912 
    7750    5320.1828    171.23421    -2607.544    3082.6294    50.446831 
    7760    5331.1521    171.58727   -2608.8045   -4895.0538    50.486696 
    7770    5315.7038    171.09005   -2609.1489    -13662.36     50.51819 
    7780    5562.2503    179.02534    -2617.906   -14044.253    50.545699 
    7790    5680.2993    182.82484   -2622.5458    3267.3612    50.594942 
    7800    5426.9223     174.6697   -2615.2028    20482.045    50.689266 
    7810    5271.8244    169.67776   -2610.9745    22296.792    50.822609 
    7820    5187.7632    166.97219   -2608.9714    20852.059    50.939424 
    7830    5073.8584    163.30607   -2605.9255    18294.411    50.992557 
    7840     5199.551    167.35158   -2610.5422    14703.614    50.992815 
    7850    5319.8724    171.22422   -2614.9612    19033.409    50.973276 
    7860    5217.5937     167.9323   -2612.1848     29833.76    50.963949 
    7870    5161.5769    166.12936   -2610.8523    33046.344    51.006445 
    7880    5359.7428    172.50748   -2617.6924      22291.2    51.110747 
    7890    5459.5192    175.71886   -2621.3752    12663.253    51.217003 
    7900    5230.0459    168.33309   -2614.4499    13435.056    51.269794 
    7910    5106.3623    164.35223   -2610.9057    8427.6764    51.277524 
    7920    5141.7358    165.49076   -2612.4567   -524.87756    51.286358 
    7930    5064.9889     163.0206   -2610.3508    -9893.342    51.318032 
    7940    5166.9232    166.30143   -2613.9747   -13289.688    51.360195 
    7950    5303.2446    170.68904   -2618.6995   -9024.2004    51.397366 
    7960    5146.6849    165.65005   -2613.9873   -2026.9334    51.416279 
    7970    4985.6767    160.46788   -2609.1014    1367.8217    51.410201 
    7980      5025.31     161.7435    -2610.643   -7907.9427    51.374568 
    7990    5062.3859    162.93682   -2612.0612   -12031.377    51.317892 
    8000    5135.3721    165.28594   -2614.6293    -9016.313    51.299535 
    8010    4908.1981    157.97416   -2607.4849   -2541.8998    51.379528 
    8020    4903.7233    157.83014   -2607.4793   -8304.7104    51.548156 
    8030    5066.0807    163.05574   -2612.8001    -15763.62    51.746242 
    8040    5249.2059    168.94977   -2618.7716   -15774.862    51.903627 
    8050    5324.5477     171.3747   -2621.2815   -9028.4215    51.977969 
    8060    5226.2277    168.21019   -2618.2039   -2316.5783    51.978896 
    8070    5304.5653    170.73155   -2620.8421     2485.917    51.951953 
    8080    5296.6624    170.47719   -2620.7098    8959.9061    51.959065 
    8090    5220.3261    168.02025   -2618.3955    2773.6107    52.031016 
    8100    5104.4188    164.28968   -2614.7987   -8122.7329    52.150199 
    8110     5173.906    166.52618   -2617.1725   -13020.756    52.280468 
    8120    5289.8313    170.25733   -2621.0471   -16098.871    52.396654 
    8130    5144.7692    165.58839   -2616.5231   -16295.569    52.478769 
    8140    4992.0918    160.67435   -2611.7467   -15156.867    52.519882 
    8150    5091.7075    163.88056   -2615.0775     -12711.4    52.541401 
    8160    5253.7678    169.09659   -2620.4134   -13821.136    52.573461 
    8170     5186.154    166.92039   -2618.3603   -16963.839    52.616152 
    8180    5077.1205    163.41106   -2614.9692   -17814.037    52.658132 
    8190    5301.3913    170.62939   -2622.3267   -19261.552    52.703677 
    8200    5329.7216    171.54122   -2623.3855   -19989.727    52.770926 
    8210    5248.8466     168.9382   -2620.9628   -25305.746    52.855342 
    8220    5170.6421    166.42113   -2618.6429   -24877.827    52.917124 
    8230      5220.51    168.02617   -2620.4615   -14417.699    52.910805 
    8240    5309.0122    170.87468   -2623.5541   -4417.6799     52.82225 
    8250    5162.4173    166.15641    -2619.095   -3232.9132    52.682804 
    8260    5105.1154     164.3121   -2617.5182   -6938.3691    52.562032 
    8270    5333.8341    171.67359   -2625.1837   -14353.169    52.513429 
    8280    5391.9242    173.54326    -2627.399   -18192.608    52.518138 
    8290    5229.3234    168.30983   -2622.5646   -16719.017    52.527239 
    8300    5016.5936    161.46296   -2616.1287   -10982.242     52.51842 
    8310    5054.6853    162.68897   -2617.7851   -8759.2984     52.50034 
    8320     5104.844    164.30337   -2619.8389   -7482.9795    52.495675 
    8330    5129.3231    165.09125   -2621.0889   -6439.6109    52.517659 
    8340    5162.4222    166.15657   -2622.6632   -7159.8356    52.567832 
    8350    4985.0521    160.44777   -2617.4636   -4334.6722    52.643939 
    8360    5077.0459    163.40866   -2620.9673   -1621.9351     52.73032 
    8370     5116.967    164.69355   -2622.8312     2312.083    52.809577 
    8380      4997.46    160.84713   -2619.5671    5056.1287    52.871079 
    8390    5238.8363    168.61601   -2627.9793     3310.395    52.912439 
    8400    5382.5402    173.24123   -2633.3317    127.66748    52.953641 
    8410    5116.4743     164.6777   -2625.5565   -660.18673    53.019098 
    8420    4832.3356    155.53247   -2617.1866    5277.9388    53.107667 
    8430    5059.2151    162.83477   -2625.3007     3057.264    53.193821 
    8440    5206.6353     167.5796   -2630.9278    4866.1183    53.256817 
    8450      4944.12    159.13034   -2623.3744    5858.9505    53.286138 
    8460    4880.7828    157.09178    -2622.231   -4398.2106    53.279325 
    8470    5066.8179    163.07947   -2629.1469   -13279.664    53.263257 
    8480     5134.259    165.25011   -2632.2923   -10182.801    53.282894 
    8490    4997.5942    160.85145   -2628.8876   -2921.5689    53.348505 
    8500    4904.2795    157.84804   -2626.8714    -2557.318    53.435918 
    8510    4813.7331    154.93374   -2624.9201   -981.28066    53.508742 
    8520    4773.0591    153.62461   -2624.5289   -4781.0999    53.552483 
    8530    4929.8439    158.67085   -2630.4885   -11622.259    53.588507 
    8540    4972.3882    160.04017   -2632.7735   -7452.6214    53.632544 
    8550    4836.8745    155.67856   -2629.2874   -1970.3814    53.670437 
    8560    4806.0079    154.68509   -2629.1366    -3146.212    53.697149 
    8570    4732.9348    152.33318   -2627.5629    2940.2166    53.729202 
    8580    4791.3722    154.21403    -2630.173    7721.9444    53.769096 
    8590    4962.0934    159.70883   -2636.3809    2151.2698     53.80357 
    8600    4895.9673    157.58051   -2634.9406   -2350.8697    53.823909 
    8610    4725.3647    152.08953   -2630.0794   -3560.9813    53.831527 
    8620    4768.4885     153.4775    -2632.041   -10911.262    53.833035 
    8630    5048.6789    162.49565   -2641.6157    -16491.94    53.837758 
    8640    5146.5262    165.64494   -2645.3299   -13620.474     53.85253 
    8650    4942.5944    159.08124   -2639.3163   -5741.7418    53.877507 
    8660    4757.5302     153.1248   -2633.8736   -6015.1993    53.896919 
    8670    4681.6348    150.68205   -2631.8829   -8652.2804    53.888285 
    8680    4780.3136     153.8581   -2635.4619   -10378.385    53.852111 
    8690    4765.1008    153.36847    -2635.334   -10206.145    53.809416 
    8700    4518.9872    145.44711   -2627.6983   -15457.871    53.782394 
    8710    4531.6439    145.85448   -2628.3203   -19206.664    53.778624 
    8720    4805.1289     154.6568   -2637.2904   -19080.346    53.807898 
    8730    4703.8648    151.39754   -2634.1371   -10571.536    53.875438 
    8740    4541.5663    146.17383   -2628.9509   -2357.8296    53.954369 
    8750    4889.8829    157.38468    -2640.176   -6165.5833    54.007346 
    8760    4949.7687    159.31215   -2642.0497   -13298.927     54.02804 
    8770    4968.1276    159.90304    -2642.589   -23021.374    54.035489 
    8780     4887.613    157.31162   -2639.9284    -27223.39    54.062601 
    8790    4686.9671    150.85367   -2633.3627   -23704.386    54.123417 
    8800    4860.3794    156.43508   -2638.8055   -15088.091     54.20561 
    8810    5072.5202      163.263   -2645.4588   -8587.6213    54.294585 
    8820     4929.825    158.67024   -2640.6607   -4464.0684    54.362475 
    8830    4870.4654    156.75971   -2638.5457   -4940.8631    54.377342 
    8840    4869.1062    156.71596   -2638.2529   -8988.7736    54.344304 
    8850    5005.1351    161.09416   -2642.3541   -13157.601    54.296693 
    8860    5088.1188    163.76505   -2644.7168   -10478.593    54.268985 
    8870    4936.2156    158.87593   -2639.4964   -1380.4348     54.28661 
    8880     4851.507    156.14952   -2636.4283    1792.9849    54.350681 
    8890    4865.0875    156.58662   -2636.4712   -3363.4009    54.439163 
    8900     4907.383    157.94793   -2637.3764   -5749.7851    54.533247 
    8910    5007.8129    161.18034   -2640.0912    -8945.096    54.621456 
    8920    5177.2589    166.63409   -2644.9736   -12127.147    54.681067 
    8930    5080.9357    163.53386   -2641.2501   -5957.6666    54.704827 
    8940    4904.5534    157.85686   -2634.9204    3026.5589    54.709984 
    8950    4875.1769    156.91135   -2633.2638    5231.3736    54.699324 
    8960    4875.4646    156.92061   -2632.4633    72.381493     54.65076 
    8970    4936.7035    158.89163    -2633.517   -5506.6445    54.539618 
    8980    4956.9119    159.54206    -2633.139   -12290.327    54.366746 
    8990    4853.4493    156.21203   -2628.6724    -14179.39    54.190963 
    9000    4877.5623    156.98813    -2628.219   -14848.202      54.0828 
    9010    4878.6818    157.02416   -2626.9018   -14541.713    54.061882 
    9020    4725.7196    152.10095   -2620.5267   -9475.4334    54.107099 
    9030    4955.5833    159.49929   -2626.3914    108.07537    54.174526 
    9040    5154.1614    165.89068    -2631.097    3192.3783    54.215176 
    9050    5081.7376    163.55967   -2627.0515    1354.9818    54.217768 
    9060    5237.0687    168.55912   -2630.3777   -4969.6983    54.203369 
    9070    5438.9108    175.05556   -2635.2129    -4698.215    54.183408 
    9080    5372.8114    172.92811   -2631.5241   -9789.6146    54.155042 
    9090    5098.3734    164.09511   -2621.3052     -16602.7    54.118995 
    9100    5117.3062    164.70447   -2620.6902   -16891.497    54.070006 
    9110    5228.8877    168.29581   -2623.1331   -18282.594    54.022401 
    9120    5270.5367    169.63632   -2623.4349   -15663.884    54.021655 
    9130    5074.0621    163.31263   -2616.1898   -12804.977      54.0983 
    9140    4931.0676    158.71024   -2610.7915   -9543.0807    54.231764 
    9150    5096.7126    164.04165   -2615.3946   -14012.703    54.373367 
    9160    5318.1089    171.16746   -2621.8438   -20899.133    54.481893 
    9170    5289.9357    170.26069   -2620.3484   -20309.503    54.545801 
    9180    5123.5788    164.90636   -2614.5041   -17847.817    54.584849 
    9190    5158.2642    166.02274   -2615.2172   -16266.167    54.631631 
    9200    5273.0296    169.71655   -2618.5559   -14509.807    54.703117 
    9210     5459.319    175.71242   -2624.2711   -15259.224    54.788102 
    9220    5546.0164    178.50284   -2626.8795   -16691.386     54.85995 
    9230    5365.6875    172.69882   -2620.9915   -15581.733    54.894773 
    9240    5211.3285    167.73065   -2616.0305   -19597.422    54.887939 
    9250    5103.7418    164.26789   -2612.6117   -32288.812    54.852641 
    9260    5202.6848    167.45245    -2615.883   -36272.033    54.816516 
    9270    5308.1093    170.84562   -2619.4019   -28175.253    54.810614 
    9280    5252.2122    169.04653   -2617.7821   -18538.428    54.845763 
    9290    5110.8151    164.49555   -2613.4548   -9270.1879    54.885897 
    9300     5068.345    163.12862   -2612.3262   -8484.7414    54.862202 
    9310    5269.8252    169.61341   -2619.1006   -16201.096      54.7578 
    9320    5168.8355    166.36298   -2616.1614   -15732.455    54.631568 
    9330    5114.0825    164.60071   -2614.7515   -7420.4107    54.555169 
    9340    5110.3699    164.48122   -2615.0188    -722.1266     54.56448 
    9350     4942.823     159.0886   -2610.0107   -953.34022    54.640413 
    9360    5038.6341    162.17235   -2613.4881   -7057.7781    54.742657 
    9370    5367.6554    172.76215   -2624.5211   -9261.4832     54.83007 
    9380    5532.0001    178.05172   -2630.3387   -8402.3766    54.869351 
    9390    5483.7702     176.4994   -2629.4213   -12965.499    54.862898 
    9400    5329.9244    171.54775   -2625.1854   -13903.612    54.844696 
    9410    5289.3225    170.24095   -2624.6433   -8554.4587    54.848679 
    9420    5426.5312    174.65712   -2629.9193   -3591.5389    54.883959 
    9430    5313.6362    171.02351    -2627.196   -3303.4407     54.93981 
    9440    5239.7939    168.64683   -2625.7821   -1747.4895     54.99551 
    9450    5213.3656    167.79622    -2625.924   -302.38655     55.04447 
    9460    5162.2941    166.15244   -2625.2999    85.457153     55.09205 
    9470    4986.8282    160.50494   -2620.6585   -7545.4312     55.13273 
    9480    4862.0133    156.48767   -2617.5895   -12108.016    55.162284 
    9490    5057.3753    162.77555   -2624.8164   -11634.464    55.192821 
    9500    5133.3494    165.22083    -2628.221   -6856.5173    55.249037 
    9510    4826.3543    155.33996   -2619.2441   -1487.4076    55.328436 
    9520    4755.5282    153.06037    -2617.788   -1080.0846    55.394419 
    9530    5032.8854    161.98732   -2627.5229    -6709.875    55.438018 
    9540     5057.259    162.77181   -2629.1072   -14978.059    55.495712 
    9550    4772.1461    153.59523   -2620.6675   -21745.403    55.597574 
    9560    4885.8259     157.2541   -2625.0088   -26208.666     55.74536 
    9570    5178.1216    166.66186   -2635.1214   -28679.407     55.91018 
    9580    4957.7141    159.56787   -2628.6955   -17415.335    56.046131 
    9590    4868.6802    156.70225   -2626.4623   -12493.038    56.110075 
    9600    5062.8388     162.9514   -2633.3348   -16996.101     56.10404 
    9610    4973.3284    160.07044   -2631.0625    -16355.34    56.079057 
    9620    4725.4387    152.09191   -2623.6343   -5044.0849    56.090231 
    9630    4838.8276    155.74142   -2627.7995    10618.802     56.15696 
    9640    4979.5254    160.26989    -2632.819    21156.262     56.26635 
    9650    5010.3615    161.26237   -2634.2867    17267.192    56.382234 
    9660    5237.6301    168.57719   -2642.1088    1803.2051    56.459688 
    9670    5384.7399    173.31203   -2647.3947   -9385.8414    56.474733 
    9680    5403.8386    173.92674   -2648.6337   -16933.687     56.43118 
    9690    5294.3732    170.40351   -2645.7821   -23879.963    56.366975 
    9700    5225.2494    168.17871   -2644.2676   -25289.916    56.322693 
    9710     5138.275    165.37937   -2642.1919   -18125.524    56.297971 
    9720    5104.2797     164.2852   -2641.8157   -4435.6476    56.271355 
    9730    5307.8317    170.83668   -2649.1276   -3936.4905    56.227053 
    9740    5144.4832    165.57919   -2644.6596   -11944.185      56.1395 
    9750    4727.2933     152.1516   -2631.9476    -11309.99    56.020886 
    9760    4935.5913    158.85584   -2639.3515   -2586.6861    55.951496 
    9770    5071.3181    163.22431   -2644.4067    7546.8095    55.996877 
    9780    5021.4867    161.62045   -2643.4922      7331.54    56.126694 
    9790    4945.6397    159.17925   -2641.7169   -2519.7924     56.26424 
    9800    5091.3365    163.86862   -2647.0734   -14403.235    56.358211 
    9810    5218.2751    167.95423   -2651.8659   -17069.044    56.385322 
    9820    5005.1561    161.09483   -2645.7091   -16549.313    56.366085 
    9830    4899.8681    157.70606    -2643.004   -16889.627    56.350037 
    9840    5006.2861    161.13121   -2647.1015   -11768.593    56.368921 
    9850    5074.1881    163.31668    -2649.975     -9203.03    56.414279 
    9860    4836.0758    155.65285   -2642.9765   -2269.4098    56.455391 
    9870     4559.307    146.74484   -2634.6708   -955.07124    56.469126 
    9880    4561.0791    146.80187   -2635.2562   -12251.708    56.464816 
    9890    4620.4347    148.71228   -2637.6559   -21694.759    56.464316 
    9900    4370.3251    140.66231   -2629.9937   -21251.248    56.479699 
    9910    4584.8713    147.56764   -2637.2433   -18527.267    56.504455 
    9920    4775.7807    153.71221   -2643.7113   -16038.225     56.51911 
    9930    4483.8973    144.31772   -2634.5693   -7709.5656     56.50229 
    9940    4589.6214    147.72053   -2638.2126   -2576.3067    56.448864 
    9950    4605.5293    148.23254   -2638.9203   -5314.9894    56.384648 
    9960    4344.9137    139.84442   -2630.6654   -15757.886     56.34297 
    9970     4485.964    144.38423   -2635.2896   -27134.634    56.332904 
    9980     5012.203    161.32164   -2652.3009   -36215.474    56.346987 
    9990    4990.8253    160.63359   -2651.6996   -32043.763    56.378308 
   10000    4406.6283    141.83075   -2632.9748   -12697.625    56.417353 
   10010    4274.9127    137.59138   -2628.7888    4433.5038    56.442875 
   10020    4447.5072    143.14647   -2634.3369    3254.6159    56.437101 
   10030    4464.3282    143.68787   -2634.7966   -3781.9437    56.403417 
   10040    4683.0758    150.72843   -2641.7351   -9871.0259    56.357848 
   10050    4707.2828    151.50755   -2642.3917   -7596.5085    56.307023 
   10060    4345.3884     139.8597   -2630.5834   -3507.2516    56.244966 
   10070    4491.0866    144.54911   -2635.0973   -4374.9806    56.176151 
   10080    4774.2542    153.66308   -2643.9915    -2793.493    56.119133 
   10090    4618.0622    148.63592   -2638.6949    550.65257    56.086635 
   10100    4781.6685    153.90171     -2643.73    138.78466    56.068708 
   10110    4574.3201    147.22804   -2636.7761   -3437.6411     56.07757 
   10120     4477.574    144.11419   -2633.3854   -10383.894    56.134378 
   10130    4687.0295    150.85568   -2639.8235   -15393.467     56.21303 
   10140     4693.404    151.06085   -2639.6784   -10806.714    56.264634 
   10150    4722.0258    151.98207   -2640.2476   -3262.7768    56.263584 
   10160    4750.1294     152.8866   -2640.7888    2704.2571    56.211789 
   10170    4734.9458     152.3979   -2639.9342    2748.9897    56.128899 
   10180    4663.2525     150.0904   -2637.2496    297.49258    56.050041 
   10190    4812.6613    154.89924   -2641.6749   -1724.3544    56.011143 
   10200    5049.2782    162.51494   -2648.9034   -137.41217    56.026123 
   10210    4955.6301     159.5008   -2645.5166    5814.6197    56.083384 
   10220    4857.8786    156.35459   -2642.0465     8045.084    56.151709 
   10230    4879.9382     157.0646   -2642.4519    4744.5816    56.203792 
   10240     4883.236    157.17074   -2642.2749    1352.5227    56.236832 
   10250    4688.5923    150.90598   -2635.7256    1853.0766     56.25868 
   10260    4755.8779    153.07162   -2637.6218   -1309.9621    56.289561 
   10270    4912.4185       158.11   -2642.3892   -9206.7605    56.355059 
   10280    4698.0192     151.2094   -2635.1939   -5265.7871    56.462421 
   10290    4997.1143      160.836   -2644.5538    3022.3056    56.589508 
   10300    5544.0856     178.4407   -2661.9236    7289.1773    56.704177 
   10310    5326.5441    171.43896   -2654.7662    12381.735    56.792549 
   10320    4943.9566    159.12508   -2642.4074    19288.955     56.85744 
   10330     5129.886    165.10936   -2648.4332    17156.928     56.90484 
   10340    5349.0736    172.16409   -2655.6167    9312.3048     56.93906 
   10350    4984.3091    160.42386   -2644.0992    10555.992    56.958947 
   10360    4558.6926    146.72506   -2630.6589    16636.077    56.958261 
   10370    4872.9675    156.84024   -2641.0838    13501.819    56.933891 
[...]
   27500    920.52988    29.627969   -2865.5674    -3638.641    61.344193 
   27510     896.3082    28.848375   -2864.9234   -4293.6901    61.343091 
   27520    954.06927     30.70746   -2866.9285   -4412.3801    61.313351 
   27530    950.40719    30.589593   -2866.9685   -3632.9883    61.283799 
   27540    873.23948     28.10589   -2864.6376   -3277.8254    61.277311 
   27550    854.68878    27.508822   -2864.1868    -5515.239    61.296174 
   27560     865.4896    27.856454    -2864.672   -8765.4435    61.325379 
   27570     903.4034     29.07674   -2866.0335   -10590.336    61.347552 
   27580    889.57956    28.631808    -2865.731   -9938.0191    61.356766 
   27590     863.7727    27.801195   -2865.0372   -8102.2463    61.357111 
   27600    905.47591    29.143445   -2866.5207   -7373.7322    61.353903 
   27610    913.57378    29.404081   -2866.9302   -7345.6066     61.35068 
   27620    859.79125    27.673049    -2865.344   -7034.9405    61.344818 
   27630    850.95746    27.388726    -2865.201   -7097.8556    61.329644 
   27640    848.12725    27.297634    -2865.246   -6084.6636    61.305068 
   27650    842.54988    27.118122   -2865.1971    -4329.528     61.27886 
   27660    852.60832     27.44186   -2865.6493   -4112.6041    61.258231 
   27670    873.08058    28.100776   -2866.4359   -4495.7549    61.242572 
   27680    912.15011    29.358259   -2867.8312   -3543.9518    61.224369 
   27690    915.75055    29.474142   -2868.0951   -1594.0854     61.19312 
   27700    905.78154    29.153282   -2867.9312   -1680.1559    61.143148 
   27710    890.90888    28.674594   -2867.6176   -3565.0975    61.087406 
   27720    835.82794    26.901771   -2866.0053   -6183.4258    61.053475 
   27730    803.36134    25.856808   -2865.1081   -7305.9651    61.058889 
   27740    827.22483    26.624873   -2866.0197   -6393.9341    61.096853 
   27750    828.37427    26.661869    -2866.195   -4111.7457    61.140729 
   27760    841.62564    27.088374   -2866.7573    -2543.929    61.163272 
   27770    884.45237    28.466786   -2868.2802   -2460.1759    61.161296 
   27780    868.39359    27.949922   -2867.9132   -3206.7964    61.157831 
   27790    834.53383    26.860119   -2866.9707   -3770.8092    61.175186 
   27800    854.54566    27.504215   -2867.7644   -3199.7128    61.213187 
   27810    859.89715    27.676457   -2868.0909   -2639.4334    61.254686 
   27820    832.23553    26.786146   -2867.3529   -2831.5663    61.281473 
   27830    829.45369    26.696611   -2867.4148   -3745.9402    61.288639 
   27840     828.8239    26.676341   -2867.5443   -4676.2096    61.290574 
   27850    819.43627    26.374192   -2867.3899   -4082.7833     61.30621 
   27860     816.5283    26.280597   -2867.4407   -3549.4906    61.336193 
   27870    817.87915    26.324075   -2867.6294   -3069.0842    61.358296 
   27880    784.87208    25.261717   -2866.7029   -2130.2509    61.347194 
   27890    818.23968    26.335679   -2867.9105    -3035.293    61.298713 
   27900    875.95519    28.193298   -2869.9142   -5588.3252    61.238855 
   27910    851.04255    27.391465    -2869.266   -7050.3578    61.207222 
   27920    819.18007    26.365946    -2868.394   -5755.2098    61.223811 
   27930    829.97789    26.713482   -2868.8989   -3636.3449    61.271987 
   27940    800.41073    25.761841   -2868.1032   -2946.6964     61.31419 
   27950    759.01937    24.429627   -2866.9145   -4712.2412    61.323632 
   27960    786.01406    25.298472   -2867.9238   -7824.7827    61.305217 
   27970    788.30467    25.372198   -2868.1366   -8809.1425       61.288 
   27980    755.52211    24.317065   -2867.2112   -7347.1943     61.29788 
   27990    786.44933    25.312482   -2868.3335   -5529.0961    61.332115 
   28000    841.44459    27.082547   -2870.2407   -4899.3113    61.362081 
   28010    807.92536    26.003705   -2869.3051   -6456.9112    61.361749 
   28020    748.77585    24.099932   -2867.5354   -9267.6977    61.328178 
   28030    776.02748    24.977047   -2868.5449   -10512.359    61.284761 
   28040     801.1197    25.784659   -2869.4883   -9201.0237    61.267212 
   28050    784.33797    25.244526    -2869.085   -7009.3615    61.295468 
   28060    787.68792    25.352347   -2869.3308   -5417.8264     61.35742 
   28070    809.29777    26.047877   -2870.1727   -5039.6932    61.420975 
   28080    768.96824    24.749839   -2869.0209    -5046.254    61.458167 
   28090    735.41405    23.669872   -2868.0781   -4518.8058    61.458647 
   28100    759.77281    24.453878   -2868.9994   -3080.5675    61.432752 
   28110    737.51228    23.737405   -2868.4154   -1326.3141    61.406253 
   28120    721.00532    23.206116   -2868.0054   -1900.3207    61.400715 
   28130    794.11062    25.559067   -2870.4875   -5182.3586    61.416822 
   28140    812.38672    26.147297   -2871.2159   -7572.6644    61.436492 
   28150    777.45462     25.02298   -2870.2362   -8549.9846    61.435725 
   28160    777.17161    25.013872   -2870.3759   -9095.3986    61.401181 
   28170    789.55899    25.412569   -2870.9294   -7472.6191    61.337989 
   28180    775.97601     24.97539   -2870.6539   -5477.1108     61.26352 
   28190    714.32941    22.991247    -2868.823   -5060.1495    61.201188 
   28200    693.94895    22.335286    -2868.305   -6101.2542    61.168362 
   28210     763.4786    24.573151    -2870.683    -8178.106    61.167302 
   28220      793.663     25.54466   -2871.8082   -9573.6593    61.190314 
   28230     722.6201    23.258089   -2869.6708   -8409.4359    61.222634 
   28240    706.69247    22.745446   -2869.2977   -6432.5364     61.24355 
   28250    747.85196    24.070196   -2870.7652   -5318.5954    61.239252 
   28260    730.78712    23.520951   -2870.3562   -3897.1765    61.213465 
   28270    732.39253    23.572622   -2870.5468   -2509.2164    61.178796 
   28280    761.73884    24.517156   -2871.6372   -2275.2458    61.145928 
   28290    734.14785    23.629118   -2870.8967   -2880.5508    61.123894 
   28300    704.54597    22.676359   -2870.0839   -3911.5908    61.119579 
   28310    745.69284    24.000703   -2871.5509   -4979.1358    61.132176 
   28320    772.86447    24.875243   -2872.5798   -5869.4431    61.153515 
   28330    720.77318    23.198644   -2871.0584   -6246.3232    61.171827 
   28340    665.08128    21.406157   -2869.4083   -6091.7603    61.177722 
   28350    665.64458    21.424287   -2869.5564   -5694.7754    61.171392 
   28360    704.12718     22.66288   -2870.9227   -5644.0537     61.16488 
   28370    725.66942    23.356234   -2871.7482   -4907.4855    61.173304 
   28380    707.69445    22.777695   -2871.3024   -2699.6077    61.199071 
   28390    713.30049     22.95813   -2871.6145   -175.18935    61.226224 
   28400    765.81103    24.648222   -2873.4493    169.46401    61.236186 
   28410    758.17765    24.402536   -2873.3623   -2338.4675    61.225845 
   28420    698.96443    22.496713   -2871.6118   -5038.4602    61.207679 
   28430    708.58882    22.806481   -2872.0761   -6879.1453    61.199494 
   28440     727.4157    23.412439   -2872.8431    -7625.031    61.212633 
   28450    690.17673    22.213874   -2871.8041   -7488.2052    61.240178 
   28460     654.5353    21.066727   -2870.8049   -7442.4526    61.261086 
   28470    681.06666    21.920659    -2871.802   -8230.1711    61.258968 
   28480    707.78342    22.780559   -2872.8122   -8851.5762    61.233044 
   28490    650.49295     20.93662     -2871.11   -7253.1859    61.196097 
   28500    643.28275    20.704555   -2871.0078   -5958.2963    61.169134 
   28510    702.04215    22.595771   -2873.0353   -6642.5812    61.172123 
   28520    680.83684    21.913262   -2872.4906    -6846.678    61.208725 
   28530    653.08393    21.020013   -2871.7273   -6046.0746    61.259784 
   28540    711.39084    22.896666   -2873.7422   -6199.9285    61.297011 
   28550    725.20193    23.341187   -2874.3367   -5849.6674    61.304732 
   28560    704.99659    22.690863   -2873.8416   -4103.1851     61.28811 
   28570    712.88798    22.944853   -2874.2616    -3308.586    61.265148 
   28580    667.81351    21.494096   -2872.9755   -3176.7055    61.253803 
   28590    632.76841    20.366142   -2871.9992    -3061.453    61.260538 
   28600    669.28214    21.541365   -2873.3275   -3873.8087    61.279841 
   28610     651.5293    20.969976   -2872.9093   -4911.2342     61.30329 
   28620    600.32672    19.321981   -2871.3974   -5786.0153    61.324075 
   28630    650.34391    20.931823   -2873.1416   -6724.2029    61.336561 
   28640    685.50292    22.063444    -2874.417   -5944.6043     61.33687 
   28650    652.49805    21.001156   -2873.4969   -2900.4206     61.32429 
   28660    668.26408    21.508598   -2874.1504   -708.02168    61.303025 
   28670    671.55161     21.61441   -2874.4088   -600.11905    61.280112 
   28680    634.49827    20.421819   -2873.3637   -1305.2352    61.259721 
   28690    652.99841    21.017261   -2874.1062   -1850.9169    61.242483 
   28700    678.91971    21.851558   -2875.0986   -1133.0851     61.22744 
   28710    619.57821    19.941606   -2873.3419    337.35666    61.213899 
   28720    600.49696    19.327461   -2872.8672    387.21906    61.204637 
   28730    660.92567    21.272406     -2874.96    -2180.166    61.203557 
   28740     637.0703    20.504602   -2874.3432   -4579.6878     61.20967 
   28750    580.27189    18.676501   -2872.6532   -4715.9035    61.213281 
   28760    603.90338    19.437099   -2873.5444   -4104.3604    61.202145 
   28770    653.57379     21.03578   -2875.2827   -4462.9519    61.174773 
   28780     633.5946    20.392734   -2874.7822   -5870.1644    61.144359 
   28790    633.67265    20.395246   -2874.9276   -7013.0795    61.130367 
   28800    669.07203    21.534603    -2876.224   -7102.3152    61.146301 
   28810    622.67131    20.041159   -2874.8891   -5588.2891    61.187959 
   28820     585.4711    18.843842   -2873.8392   -3903.9753    61.232857 
   28830    608.70667    19.591697   -2874.7347   -2833.4301    61.256861 
   28840    584.02511    18.797301   -2874.0836    -2624.466    61.250069 
   28850    559.95077     18.02245   -2873.4384   -4259.3321    61.220064 
   28860    614.41604    19.775457   -2875.3244   -6280.7137    61.187594 
   28870     631.4049    20.322257   -2876.0145   -6149.0977     61.17341 
   28880    584.08071    18.799091   -2874.6303   -3648.1356    61.181231 
   28890    594.25986    19.126715   -2875.0942   -726.10217    61.195914 
   28900     624.6335    20.104314   -2876.2176    941.13737    61.200128 
   28910    589.73706    18.981145    -2875.239    422.49768    61.185927 
   28920    589.01004    18.957745   -2875.3566   -2031.2403    61.156147 
   28930     636.4278    20.483923   -2877.0352   -4078.5057    61.127499 
   28940    633.75259    20.397819   -2877.1138   -4608.1399    61.120716 
   28950    587.96887    18.924234   -2875.8037   -4619.6514    61.140689 
   28960    566.87754    18.245393     -2875.28   -5096.0622    61.174655 
   28970    568.83699     18.30846   -2875.4944   -5582.7431    61.204893 
   28980    567.72623    18.272709   -2875.6047   -5760.2579    61.217797 
   28990    591.53605    19.039047   -2876.5207   -5282.2273    61.208728 
   29000    585.90798    18.857903   -2876.4931     -4216.72    61.185368 
   29010    546.48291    17.588976     -2875.37   -4637.5612    61.162618 
   29020    533.29754    17.164595   -2875.0807   -7124.1694    61.154593 
   29030    558.22365    17.966861   -2876.0152   -9132.9526    61.171051 
   29040    587.96424    18.924085   -2877.1115   -8796.0348     61.21355 
   29050    583.12137    18.768214   -2877.1009   -7011.2241    61.273793 
   29060    555.35105    17.874404   -2876.3517    -4714.687    61.338105 
   29070    526.62805    16.949932   -2875.5626   -2967.9799    61.391226 
   29080     540.2471    17.388272   -2876.1313   -3637.0854    61.421989 
   29090    571.62594    18.398225   -2877.2783   -5977.5858    61.431787 
   29100    567.26312    18.257804   -2877.2793   -6985.7241    61.432664 
   29110     563.2059    18.127219   -2877.2933   -6057.8335    61.432908 
   29120    564.06593      18.1549   -2877.4699     -4808.66    61.430873 
   29130    547.05568    17.607412   -2877.0713   -4740.9345    61.422807 
   29140    535.93882    17.249607   -2876.8584   -5968.0557     61.40933 
   29150    560.19341     18.03026   -2877.7867   -7314.4621    61.393804 
   29160    579.78387    18.660794   -2878.5769    -7400.417    61.378395 
   29170    553.77144    17.823564   -2877.9012   -5417.5018     61.36001 
   29180    538.04249    17.317315   -2877.5548     -3508.56    61.327799 
   29190    513.82121    16.537734   -2876.9286   -3541.5706    61.271228 
   29200    497.31194    16.006371   -2876.5377   -5064.4127    61.194734 
   29210    533.11571    17.158743   -2877.8317   -7568.5898    61.119548 
   29220    540.53154    17.397427   -2878.2192    -9111.059    61.068664 
   29230    488.62115    15.726651   -2876.6876   -7985.1732    61.051888 
   29240    485.41213    15.623366   -2876.7105   -5823.7836    61.062728 
   29250    543.11902    17.480707    -2878.703   -4324.3108    61.086332 
   29260    527.78012    16.987013   -2878.3513   -3619.8757    61.109402 
   29270    479.77736    15.442007    -2876.937   -3703.1428    61.124309 
   29280    510.40388    16.427745   -2878.0526   -3932.5612    61.131087 
   29290    536.53663    17.268848   -2879.0338   -3839.8585    61.135845 
   29300    505.12291    16.257773   -2878.1626   -3941.1639    61.143188 
   29310    499.81065    16.086794    -2878.129   -5175.9667    61.156695 
   29320    502.38614    16.169688   -2878.3521   -6882.1296    61.186196 
   29330    467.36368    15.042463   -2877.3562    -7118.078    61.239632 
   29340     480.0023    15.449246   -2877.8881    -5494.664    61.310282 
   29350    531.56613    17.108868   -2879.6852   -2913.9001      61.3776 
   29360    521.50021    16.784889   -2879.5089   -1844.2249    61.416955 
   29370    488.86998     15.73466    -2878.603   -3573.1256    61.414582 
   29380    498.87437    16.056659     -2879.07   -6688.0245    61.380471 
   29390    507.41863    16.331663   -2879.4954   -8487.3908    61.342702 
   29400    495.20251    15.938477    -2879.254   -7735.1542    61.326923 
   29410    488.82806     15.73331   -2879.1996   -5995.6597     61.33887 
   29420     492.1634    15.840661    -2879.459   -5028.0805    61.360687 
   29430    486.39247    15.654919   -2879.4253   -6073.2741    61.365356 
   29440    482.43309    15.527483   -2879.4489   -9253.7838     61.33888 
   29450    477.45632    15.367302   -2879.4396   -11941.819    61.290981 
   29460    455.83136    14.671286   -2878.8876   -11483.458    61.246726 
   29470    457.49281    14.724761   -2879.0786   -9260.6159    61.227724 
   29480    477.08526     15.35536   -2879.8507   -7484.5365    61.236916 
   29490    466.66089    15.019843   -2879.6556   -6700.0639     61.25826 
   29500    477.08853    15.355465    -2880.133   -6792.6096    61.270646 
   29510    493.63179    15.887922   -2880.8163    -6353.732    61.263713 
   29520    471.39892     15.17234    -2880.254   -4138.2135    61.242089 
   29530    444.24059    14.298228   -2879.5259    -922.5479    61.219563 
   29540       436.74    14.056816   -2879.4237    1266.2304    61.210679 
   29550     440.3234    14.172151   -2879.6738    1193.6013    61.220552 
   29560    454.63825    14.632885   -2880.2715   -887.64023    61.240548 
   29570    454.29796    14.621932      -2880.4   -2951.0831    61.256055 
   29580    449.14517    14.456086   -2880.3731   -3930.1439    61.257944 
   29590    462.14281    14.874425   -2880.9342   -4538.1226    61.247687 
   29600     467.3245    15.041202   -2881.2516   -4931.0834    61.234246 
   29610    444.89651     14.31934   -2880.6796   -5915.1837    61.227032 
   29620    442.35935    14.237679   -2880.7449   -8312.6886    61.229564 
   29630    453.15741    14.585223   -2881.2445   -9837.3124    61.235917 
   29640    428.71476    13.798517   -2880.6076   -9488.0458    61.234242 
   29650     405.5573    13.053177   -2880.0013   -8898.5778    61.218924 
   29660    411.32924    13.238951   -2880.3204   -8730.0243    61.197175 
   29670    427.74157    13.767194   -2880.9824   -8782.7097    61.180828 
   29680    444.79489    14.316069   -2881.6724   -8721.1075    61.174748 
   29690    434.35655    13.980103   -2881.4818   -8005.9076    61.173012 
   29700    415.70741    13.379866   -2881.0225   -6391.8332    61.164614 
   29710    428.31216    13.785559   -2881.5698   -4379.3791    61.145525 
   29720    444.14628    14.295193   -2882.2298   -2889.1156     61.12517 
   29730    425.53471    13.696165   -2881.7843   -2230.6177    61.118584 
   29740    398.77615     12.83492   -2881.0683   -2583.9267    61.133053 
   29750    400.94188    12.904626    -2881.278   -4354.9613    61.160761 
   29760    415.64326    13.377801   -2881.8932   -6439.0072    61.181505 
   29770    416.60436    13.408735   -2882.0706   -6853.6277    61.177249 
   29780    399.22725    12.849439   -2881.6543   -5734.4624      61.1501 
   29790    405.30773    13.045144   -2881.9916   -4928.1025     61.12303 
   29800    411.64494    13.249112   -2882.3424   -4629.0838    61.122341 
   29810    384.41543    12.372709   -2881.6078   -4714.3489     61.15678 
   29820    379.69811    12.220878     -2881.59   -5836.0338    61.209871 
   29830    399.07272    12.844465   -2882.3512   -7078.2115    61.253079 
   29840    390.07963    12.555016   -2882.2012   -6899.0137     61.26831 
   29850    370.87902    11.937029   -2881.7166   -5758.7365    61.260371 
   29860    374.11938    12.041323   -2881.9501   -4576.4377    61.250637 
   29870    389.59164    12.539309   -2882.5812   -4331.1941    61.257542 
   29880    391.75228    12.608851   -2882.7883   -6130.2285    61.282692 
   29890    389.32299    12.530663   -2882.8507    -9226.824    61.314076 
   29900    385.67126    12.413129   -2882.8758   -10517.704    61.337095 
   29910    381.48979    12.278545   -2882.8845   -8661.6873    61.343696 
   29920    379.64577    12.219194   -2882.9696   -5047.6202    61.337333 
   29930    376.35948    12.113422   -2883.0085   -2112.6718    61.328083 
   29940    370.09129    11.911675   -2882.9513   -2471.1761    61.321398 
   29950    358.67674    11.544289    -2882.724   -5467.0383    61.313617 
   29960    361.29723    11.628632   -2882.9457   -8621.9221    61.296812 
   29970    373.17511    12.010931   -2883.4695   -10388.715    61.267966 
   29980    364.80851    11.741645   -2883.3435   -9356.6005     61.23387 
   29990    356.76764    11.482844   -2883.2245   -6176.6384    61.204996 
   30000    363.55341    11.701249   -2883.5851   -3395.7376    61.186032 
Loop time of 26.344 on 1 procs for 30000 steps with 250 atoms

Performance: 49.195 ns/day, 0.488 hours/ns, 1138.781 timesteps/s
99.6% CPU use with 1 MPI tasks x no OpenMP threads

MPI task timing breakdown:
Section |  min time  |  avg time  |  max time  |%varavg| %total
---------------------------------------------------------------
Pair    | 24.632     | 24.632     | 24.632     |   0.0 | 93.50
Neigh   | 1.0314     | 1.0314     | 1.0314     |   0.0 |  3.92
Comm    | 0.10449    | 0.10449    | 0.10449    |   0.0 |  0.40
Output  | 0.46273    | 0.46273    | 0.46273    |   0.0 |  1.76
Modify  | 0.088866   | 0.088866   | 0.088866   |   0.0 |  0.34
Other   |            | 0.02458    |            |       |  0.09

Nlocal:    250 ave 250 max 250 min
Histogram: 1 0 0 0 0 0 0 0 0 0
Nghost:    876 ave 876 max 876 min
Histogram: 1 0 0 0 0 0 0 0 0 0
Neighs:    0 ave 0 max 0 min
Histogram: 1 0 0 0 0 0 0 0 0 0
FullNghs:  8304 ave 8304 max 8304 min
Histogram: 1 0 0 0 0 0 0 0 0 0

Total # of neighbors = 8304
Ave neighs/atom = 33.216
Neighbor list builds = 3000
Dangerous builds not checked




Total wall time: 0:00:26
