
# Define the lattice
variable	lattice_constant equal 3.90859
lattice		bcc ${lattice_constant}
lattice		bcc 3.90859
Lattice spacing in x,y,z = 3.90859 3.90859 3.90859

# Define region
# multiples of lattice spacing
region 		simbox block 0 5 0 5 0 5

# Create Atoms
create_box 	1 simbox
Created orthogonal box = (0 0 0) to (19.5429 19.5429 19.5429)
  1 by 2 by 5 MPI processor grid
create_atoms 	1 box
Created 250 atoms
  Time spent = 0.00118542 secs
mass		1 18.015

# Define Interatomic Potential
pair_style	sw
pair_coeff	* * mW_metal.sw mW
Reading potential file mW_metal.sw with DATE: 2019-02-27

neighbor 	2.0 bin
neigh_modify	delay 10 check no

# Initialize atom velocities
# velocity	all create ${temperature} 97287

# Pressure computations
compute		total_press all pressure thermo_temp

# compute		peratom all stress/atom NULL
# compute		p all reduce sum c_peratom[1] c_peratom[2] c_peratom[3]
# variable	press equal -(c_p[1]+c_p[2]+c_p[3])/(3*vol)

# Density computations
variable	total_mass equal mass(all)
variable	v equal vol
print 		${total_mass}
print 		4503.75
4503.75
print		$v
print		7463.97820682622
7463.97820682622

variable 	density equal v_total_mass/(v_v*18.015)
print 		${density}
print 		0.0334942028329291
0.0334942028329291

# Displacement computations
compute		disp all msd

# Run equilibration
thermo_style	custom step temp ke pe c_total_press c_disp[4]
thermo		10
dump		1 all atom 10 ${simname}.dump
dump		1 all atom 10 mW_bcc_test01_eq.dump

fix             1 all momentum 10 linear 1 1 1 rescale
fix 		2 all nvt temp ${TEMP} ${TEMP} $(100.0*dt)
fix 		2 all nvt temp 298.0 ${TEMP} $(100.0*dt)
fix 		2 all nvt temp 298.0 298.0 $(100.0*dt)
fix 		2 all nvt temp 298.0 298.0 0.10000000000000000555
fix             3 all press/berendsen iso ${PRES} ${PRES} 1000.0 modulus 20000
fix             3 all press/berendsen iso 1 ${PRES} 1000.0 modulus 20000
fix             3 all press/berendsen iso 1 1 1000.0 modulus 20000
timestep	0.0005
run		200000
Neighbor list info ...
  update every 1 steps, delay 10 steps, check no
  max neighbors/atom: 2000, page size: 100000
  master list distance cutoff = 6.3065
  ghost atom cutoff = 6.3065
  binsize = 3.15325, bins = 7 7 7
  1 neighbor lists, perpetual/occasional/extra = 1 0 0
  (1) pair sw, perpetual
      attributes: full, newton on
      pair build: full/bin/atomonly
      stencil: full/bin/3d
      bin: standard
Per MPI rank memory allocation (min/avg/max) = 3.946 | 3.946 | 3.946 Mbytes
Step Temp KinEng PotEng c_total_press c_disp[4] 
       0            0            0   -100.22289   -47081.802            0 
      10 3.4447261e-30 1.1087118e-31   -100.22521   -47080.729 1.4992392e-09 
      20 2.5174573e-29 8.1026316e-31   -100.22779   -47079.476 5.9967736e-09 
      30 9.644981e-29 3.104312e-30   -100.23037   -47078.222 1.3492328e-08 
      40 2.0741931e-28 6.6759513e-30   -100.23295   -47076.968 2.3985629e-08 
      50 5.6664764e-28 1.8237994e-29   -100.23554   -47075.713  3.74764e-08 
      60 1.2497632e-27 4.0224598e-29   -100.23812   -47074.459 5.3964366e-08 
      70 2.1738501e-27 6.9967052e-29    -100.2407   -47073.204 7.3449253e-08 
      80 3.6987001e-27 1.1904553e-28   -100.24328   -47071.948 9.5930786e-08 
      90 6.1315356e-27 1.9734823e-28   -100.24586   -47070.693 1.2140869e-07 
     100 9.7484245e-27 3.1376061e-28   -100.24844   -47069.437 1.4988269e-07 
     110 1.6278708e-26 5.2394286e-28   -100.25102   -47068.181 1.813525e-07 
     120 2.7250621e-26 8.7708237e-28    -100.2536   -47066.925 2.1581787e-07 
     130 4.4508987e-26 1.4325563e-27   -100.25618   -47065.668 2.532785e-07 
     140 6.9152721e-26 2.225734e-27   -100.25876   -47064.411 2.9373412e-07 
     150 9.800971e-26 3.1545186e-27   -100.26134   -47063.154 3.3718447e-07 
     160 1.2301987e-25 3.9594901e-27   -100.26392   -47061.896 3.8362925e-07 
     170 1.5105604e-25 4.8618557e-27   -100.26649   -47060.639 4.330682e-07 
     180 1.8480001e-25 5.9479319e-27   -100.26907   -47059.381 4.8550105e-07 
     190 2.2645199e-25 7.2885332e-27   -100.27165   -47058.122 5.4092751e-07 
     200 2.7397464e-25 8.8180863e-27   -100.27423   -47056.864 5.9934731e-07 
     210 3.377526e-25 1.087083e-26   -100.27681   -47055.605 6.6076017e-07 
     220 4.1070607e-25 1.3218894e-26   -100.27939   -47054.346 7.2516582e-07 
     230 4.9085063e-25 1.5798409e-26   -100.28197   -47053.086 7.9256398e-07 
     240 5.7901589e-25 1.8636076e-26   -100.28454   -47051.827 8.6295438e-07 
     250 6.7416939e-25 2.1698665e-26   -100.28712   -47050.567 9.3633673e-07 
     260 7.692658e-25 2.4759417e-26    -100.2897   -47049.306 1.0127108e-06 
     270 8.5390167e-25 2.7483488e-26   -100.29228   -47048.046 1.0920762e-06 
     280 9.5612869e-25 3.0773744e-26   -100.29485   -47046.785 1.1744328e-06 
     290 1.0702781e-24 3.4447732e-26   -100.29743   -47045.524 1.2597802e-06 
     300 1.1804137e-24 3.799253e-26   -100.30001   -47044.262 1.3481182e-06 
     310 1.3063197e-24 4.2044914e-26   -100.30258   -47043.001 1.4394466e-06 
     320 1.4561115e-24 4.6866078e-26   -100.30516   -47041.739 1.5337649e-06 
     330 1.6193903e-24 5.2121333e-26   -100.30774   -47040.476 1.631073e-06 
     340 1.8086916e-24 5.8214144e-26   -100.31031   -47039.214 1.7313705e-06 
     350 2.0328398e-24 6.5428527e-26   -100.31289   -47037.951 1.8346573e-06 
     360 2.3008952e-24 7.4056098e-26   -100.31546   -47036.688 1.940933e-06 
     370 2.6069433e-24 8.3906493e-26   -100.31804   -47035.424 2.0501973e-06 
     380 2.9286268e-24 9.4260126e-26   -100.32062   -47034.161  2.16245e-06 
     390 3.253633e-24 1.047207e-25   -100.32319   -47032.897 2.2776907e-06 
     400 3.5631826e-24 1.146838e-25   -100.32577   -47031.633 2.3959193e-06 
     410 3.8572817e-24 1.2414961e-25   -100.32834   -47030.368 2.5171354e-06 
     420 4.1671376e-24 1.3412256e-25   -100.33092   -47029.103 2.6413388e-06 
     430 4.4513985e-24 1.4327171e-25   -100.33349   -47027.838 2.7685291e-06 
     440 4.7186173e-24 1.5187236e-25   -100.33606   -47026.573 2.8987062e-06 
     450 4.9782528e-24 1.6022893e-25   -100.33864   -47025.307 3.0318697e-06 
     460 5.2616376e-24 1.6934989e-25   -100.34121   -47024.041 3.1680193e-06 
     470 5.6020478e-24 1.8030626e-25   -100.34379   -47022.775 3.3071548e-06 
     480 5.9528292e-24 1.9159643e-25   -100.34636   -47021.509 3.4492759e-06 
     490 6.3118838e-24 2.0315288e-25   -100.34893   -47020.242 3.5943823e-06 
     500 6.6811933e-24 2.1503939e-25   -100.35151   -47018.975 3.7424737e-06 
     510 7.0670216e-24 2.2745758e-25   -100.35408   -47017.707 3.8935499e-06 
     520 7.4435168e-24 2.3957537e-25   -100.35665    -47016.44 4.0476106e-06 
     530 7.8185317e-24 2.5164551e-25   -100.35923   -47015.172 4.2046555e-06 
     540 8.2191393e-24 2.6453938e-25    -100.3618   -47013.904 4.3646843e-06 
     550 8.6358306e-24 2.7795091e-25   -100.36437   -47012.635 4.5276967e-06 
     560 9.0419004e-24 2.9102058e-25   -100.36694   -47011.367 4.6936926e-06 
     570 9.4587415e-24 3.0443694e-25   -100.36952   -47010.097 4.8626715e-06 
     580 9.8593657e-24 3.1733134e-25   -100.37209   -47008.828 5.0346332e-06 
     590 1.0325918e-23 3.3234767e-25   -100.37466   -47007.559 5.2095775e-06 
     600 1.0829189e-23 3.4854584e-25   -100.37723   -47006.289 5.387504e-06 
     610 1.1440517e-23 3.6822193e-25    -100.3798   -47005.019 5.5684125e-06 
     620 1.2089482e-23 3.8910937e-25   -100.38238   -47003.748 5.7523028e-06 
     630 1.2737364e-23 4.0996194e-25   -100.38495   -47002.477 5.9391744e-06 
     640 1.3482351e-23 4.3393994e-25   -100.38752   -47001.206 6.1290272e-06 
     650 1.4289194e-23 4.5990879e-25   -100.39009   -46999.935 6.3218608e-06 
     660 1.516482e-23 4.8809149e-25   -100.39266   -46998.664 6.5176751e-06 
     670 1.6067115e-23 5.1713258e-25   -100.39523   -46997.392 6.7164696e-06 
     680 1.6911062e-23 5.4429567e-25    -100.3978    -46996.12 6.9182442e-06 
     690 1.7656989e-23 5.6830391e-25   -100.40037   -46994.847 7.1229985e-06 
     700 1.8301249e-23 5.8903989e-25   -100.40294   -46993.575 7.3307323e-06 
     710 1.8796055e-23 6.0496561e-25   -100.40551   -46992.302 7.5414453e-06 
     720 1.913798e-23 6.1597074e-25   -100.40808   -46991.028 7.7551372e-06 
     730 1.9384521e-23 6.2390584e-25   -100.41065   -46989.755 7.9718078e-06 
     740 1.9467765e-23 6.2658512e-25   -100.41322   -46988.481 8.1914567e-06 
     750 1.9375699e-23 6.236219e-25   -100.41579   -46987.207 8.4140837e-06 
     760 1.9168056e-23 6.1693876e-25   -100.41836   -46985.933 8.6396885e-06 
     770 1.8905531e-23 6.0848918e-25   -100.42093   -46984.658 8.8682708e-06 
     780 1.8509881e-23 5.957549e-25    -100.4235   -46983.383 9.0998303e-06 
     790 1.8041987e-23 5.8069536e-25   -100.42606   -46982.108 9.3343668e-06 
     800 1.7455809e-23 5.6182877e-25   -100.42863   -46980.832  9.57188e-06 
     810 1.6744479e-23 5.3893406e-25    -100.4312   -46979.556 9.8123696e-06 
     820 1.6037433e-23 5.1617722e-25   -100.43377    -46978.28 1.0055835e-05 
     830 1.5306289e-23 4.9264478e-25   -100.43634   -46977.004 1.0302277e-05 
     840 1.4585894e-23 4.6945833e-25    -100.4389   -46975.727 1.0551694e-05 
     850 1.3896261e-23 4.4726195e-25   -100.44147    -46974.45 1.0804086e-05 
     860 1.3223558e-23 4.2561048e-25   -100.44404   -46973.173 1.1059454e-05 
     870 1.2570074e-23 4.045776e-25   -100.44661   -46971.896 1.1317796e-05 
     880 1.1931696e-23 3.840309e-25   -100.44917   -46970.618 1.1579113e-05 
     890 1.1302104e-23 3.6376698e-25   -100.45174    -46969.34 1.1843403e-05 
     900 1.0694049e-23 3.4419626e-25   -100.45431   -46968.062 1.2110668e-05 
     910 1.0148276e-23 3.2663014e-25   -100.45687   -46966.783 1.2380906e-05 
     920 9.633215e-24 3.100525e-25   -100.45944   -46965.504 1.2654118e-05 
     930 9.1464372e-24 2.9438518e-25   -100.46201   -46964.225 1.2930302e-05 
     940 8.673734e-24 2.7917086e-25   -100.46457   -46962.946 1.320946e-05 
     950 8.2163699e-24 2.6445024e-25   -100.46714   -46961.666 1.349159e-05 
     960 7.7642075e-24 2.4989704e-25    -100.4697   -46960.386 1.3776692e-05 
     970 7.3254831e-24 2.3577636e-25   -100.47227   -46959.105 1.4064766e-05 
     980 6.9476596e-24 2.2361581e-25   -100.47483   -46957.825 1.4355811e-05 
     990 6.6396921e-24 2.1370364e-25    -100.4774   -46956.544 1.4649828e-05 
    1000 6.3873096e-24 2.0558052e-25   -100.47996   -46955.263 1.4946816e-05 
    1010 6.2190763e-24 2.001658e-25   -100.48253   -46953.981 1.5246775e-05 
    1020 6.1364824e-24 1.9750745e-25   -100.48509     -46952.7 1.5549705e-05 
    1030 6.1257501e-24 1.9716202e-25   -100.48766   -46951.418 1.5855604e-05 
    1040 6.2048973e-24 1.9970943e-25   -100.49022   -46950.135 1.6164474e-05 
    1050 6.375179e-24 2.0519008e-25   -100.49279   -46948.853 1.6476313e-05 
    1060 6.6428623e-24 2.1380568e-25   -100.49535    -46947.57 1.6791122e-05 
    1070 7.0277299e-24 2.2619294e-25   -100.49791   -46946.287  1.71089e-05 
    1080 7.5350378e-24 2.4252104e-25   -100.50048   -46945.004 1.7429646e-05 
    1090 8.1585597e-24 2.6258958e-25   -100.50304    -46943.72 1.7753361e-05 
    1100 8.9151012e-24 2.8693945e-25    -100.5056   -46942.436 1.8080045e-05 
    1110 9.8154945e-24 3.1591931e-25   -100.50817   -46941.152 1.8409696e-05 
    1120 1.0871342e-23 3.4990258e-25   -100.51073   -46939.867 1.8742316e-05 
    1130 1.2115109e-23 3.8993419e-25   -100.51329   -46938.582 1.9077902e-05 
    1140 1.3554859e-23 4.3627366e-25   -100.51586   -46937.297 1.9416456e-05 
    1150 1.5185647e-23 4.8876183e-25   -100.51842   -46936.012 1.9757977e-05 
    1160 1.707347e-23 5.495229e-25   -100.52098   -46934.726 2.0102464e-05 
    1170 1.9203598e-23 6.1808271e-25   -100.52354    -46933.44 2.0449917e-05 
    1180 2.1559456e-23 6.9390782e-25    -100.5261   -46932.154 2.0800337e-05 
    1190 2.4170366e-23 7.7794199e-25   -100.52867   -46930.867 2.1153722e-05 
    1200 2.706716e-23 8.7117755e-25   -100.53123   -46929.581 2.1510073e-05 
    1210 3.0294361e-23 9.7504751e-25   -100.53379   -46928.294 2.1869389e-05 
    1220 3.3873289e-23 1.0902381e-24   -100.53635   -46927.006 2.2231669e-05 
    1230 3.7806661e-23 1.2168367e-24   -100.53891   -46925.719 2.2596915e-05 
    1240 4.211401e-23 1.3554721e-24   -100.54147   -46924.431 2.2965125e-05 
    1250 4.6842238e-23 1.5076538e-24   -100.54403   -46923.142 2.3336298e-05 
    1260 5.2068505e-23 1.6758652e-24   -100.54659   -46921.854 2.3710436e-05 
    1270 5.7941035e-23 1.8648772e-24   -100.54915   -46920.565 2.4087537e-05 
    1280 6.4554283e-23 2.0777297e-24   -100.55171   -46919.276 2.4467601e-05 
    1290 7.2019692e-23 2.3180097e-24   -100.55427   -46917.987 2.4850628e-05 
    1300 8.0621774e-23 2.5948744e-24   -100.55683   -46916.697 2.5236618e-05 
    1310 9.0628219e-23 2.9169396e-24   -100.55939   -46915.407 2.562557e-05 
    1320 1.0233129e-22 3.2936119e-24   -100.56195   -46914.117 2.6017485e-05 
    1330 1.1602805e-22 3.7344527e-24   -100.56451   -46912.827 2.6412361e-05 
    1340 1.3224668e-22 4.256462e-24   -100.56707   -46911.536 2.6810198e-05 
    1350 1.5149852e-22 4.8760975e-24   -100.56963   -46910.245 2.7210997e-05 
    1360 1.7447679e-22 5.6156709e-24   -100.57219   -46908.954 2.7614757e-05 
    1370 2.0204754e-22 6.5030569e-24   -100.57475   -46907.662 2.8021477e-05 
    1380 2.3530713e-22 7.5735426e-24   -100.57731    -46906.37 2.8431158e-05 
    1390 2.7544745e-22 8.8654901e-24   -100.57986   -46905.078 2.8843799e-05 
    1400 3.2398097e-22 1.0427579e-23   -100.58242   -46903.786 2.9259399e-05 
    1410 3.8283957e-22 1.2321989e-23   -100.58498   -46902.493 2.967796e-05 
    1420 4.5423308e-22 1.4619844e-23   -100.58754     -46901.2 3.0099479e-05 
    1430 5.4094515e-22 1.7410739e-23    -100.5901   -46899.907 3.0523957e-05 
    1440 6.4643247e-22 2.0805931e-23   -100.59265   -46898.613 3.0951394e-05 
    1450 7.7481892e-22 2.4938148e-23   -100.59521   -46897.319 3.138179e-05 
    1460 9.3103615e-22 2.9966121e-23   -100.59777   -46896.025 3.1815144e-05 
    1470 1.121429e-21 3.6094063e-23   -100.60033   -46894.731 3.2251455e-05 
    1480 1.3535794e-21 4.3566003e-23   -100.60288   -46893.436 3.2690724e-05 
    1490 1.6364203e-21 5.2669459e-23   -100.60544   -46892.141 3.313295e-05 
    1500 1.9810874e-21 6.3762834e-23   -100.60799   -46890.846 3.3578133e-05 
    1510 2.4013629e-21 7.7289728e-23   -100.61055    -46889.55 3.4026273e-05 
    1520 2.913771e-21 9.3781981e-23   -100.61311   -46888.254 3.447737e-05 
    1530 3.5382018e-21 1.1387977e-22   -100.61566   -46886.958 3.4931422e-05 
    1540 4.2995862e-21 1.3838552e-22   -100.61822   -46885.662 3.538843e-05 
    1550 5.2278941e-21 1.6826383e-22   -100.62077   -46884.365 3.5848394e-05 
    1560 6.3601311e-21 2.0470576e-22   -100.62333   -46883.068 3.6311313e-05 
    1570 7.7418256e-21 2.4917667e-22   -100.62589   -46881.771 3.6777187e-05 
    1580 9.427207e-21 3.0342198e-22   -100.62844   -46880.473 3.7246016e-05 
    1590 1.148322e-20 3.6959634e-22     -100.631   -46879.176  3.77178e-05 
    1600 1.3991905e-20 4.5034032e-22   -100.63355   -46877.877 3.8192537e-05 
    1610 1.7052952e-20 5.488625e-22    -100.6361   -46876.579 3.8670228e-05 
    1620 2.0788192e-20 6.6908409e-22   -100.63866    -46875.28 3.9150873e-05 
    1630 2.5346894e-20 8.1580946e-22   -100.64121   -46873.981 3.9634471e-05 
    1640 3.0911836e-20 9.9492142e-22   -100.64377   -46872.682 4.0121022e-05 
    1650 3.7705005e-20 1.2135649e-21   -100.64632   -46871.383 4.0610526e-05 
    1660 4.5998903e-20 1.4805104e-21   -100.64887   -46870.083 4.1102983e-05 
    1670 5.6127016e-20 1.8064916e-21   -100.65143   -46868.783 4.1598391e-05 
    1680 6.849668e-20 2.2046188e-21   -100.65398   -46867.483 4.2096751e-05 
    1690 8.3606028e-20 2.6909249e-21   -100.65653   -46866.182 4.2598063e-05 
    1700 1.0206265e-19 3.2849655e-21   -100.65909   -46864.881 4.3102326e-05 
    1710 1.2461055e-19 4.0106872e-21   -100.66164    -46863.58 4.3609541e-05 
    1720 1.5216075e-19 4.8974117e-21   -100.66419   -46862.278 4.4119706e-05 
    1730 1.8582682e-19 5.9809805e-21   -100.66675   -46860.977 4.4632821e-05 
    1740 2.2697197e-19 7.305269e-21    -100.6693   -46859.675 4.5148886e-05 
    1750 2.7726398e-19 8.9239564e-21   -100.67185   -46858.372 4.5667902e-05 
    1760 3.3874438e-19 1.0902751e-20    -100.6744    -46857.07 4.6189867e-05 
    1770 4.1391272e-19 1.3322102e-20   -100.67695   -46855.767 4.6714781e-05 
    1780 5.0582494e-19 1.6280368e-20   -100.67951   -46854.464 4.7242645e-05 
    1790 6.1822525e-19 1.9898059e-20   -100.68206    -46853.16 4.7773457e-05 
    1800 7.5569598e-19 2.4322662e-20   -100.68461   -46851.856 4.8307217e-05 
    1810 9.2384876e-19 2.9734789e-20   -100.68716   -46850.552 4.8843926e-05 
    1820 1.1295532e-18 3.6355546e-20   -100.68971   -46849.248 4.9383582e-05 
    1830 1.3812234e-18 4.4455746e-20   -100.69226   -46847.943 4.9926186e-05 
    1840 1.6891713e-18 5.4367289e-20   -100.69481   -46846.639 5.0471738e-05 
    1850 2.066023e-18 6.6496554e-20   -100.69736   -46845.333 5.1020236e-05 
    1860 2.5272498e-18 8.1341496e-20   -100.69991   -46844.028 5.1571682e-05 
    1870 3.0918038e-18 9.9512104e-20   -100.70246   -46842.722 5.2126073e-05 
    1880 3.7829016e-18 1.2175562e-19   -100.70501   -46841.416 5.2683411e-05 
    1890 4.6289974e-18 1.4898787e-19   -100.70756    -46840.11 5.3243695e-05 
    1900 5.6649791e-18 1.8233175e-19   -100.71011   -46838.803 5.3806924e-05 
    1910 6.9335982e-18 2.2316324e-19   -100.71266   -46837.496 5.4373099e-05 
    1920 8.4872626e-18 2.7316913e-19   -100.71521   -46836.189 5.4942218e-05 
    1930 1.0390213e-17 3.3441705e-19   -100.71776   -46834.882 5.5514283e-05 
    1940 1.2721218e-17 4.0944228e-19   -100.72031   -46833.574 5.6089291e-05 
    1950 1.5576878e-17 5.0135392e-19   -100.72286   -46832.266 5.6667244e-05 
    1960 1.907564e-17 6.1396429e-19   -100.72541   -46830.958 5.7248141e-05 
    1970 2.3362772e-17 7.5194895e-19   -100.72795   -46829.649 5.7831982e-05 
    1980 2.8616481e-17 9.2104364e-19    -100.7305   -46828.341 5.8418765e-05 
    1990 3.5055359e-17 1.1282839e-18   -100.73305   -46827.031 5.9008492e-05 
    2000 4.2947565e-17 1.3823007e-18    -100.7356   -46825.722 5.9601162e-05 
    2010 5.2622088e-17 1.6936827e-18   -100.73815   -46824.412 6.0196774e-05 
    2020 6.4482615e-17 2.075423e-18   -100.74069   -46823.102 6.0795328e-05 
    2030 7.9024538e-17 2.5434661e-18   -100.74324   -46821.792 6.1396824e-05 
    2040 9.6855852e-17 3.1173808e-18   -100.74579   -46820.482 6.2001261e-05 
    2050 1.1872279e-16 3.8211852e-18   -100.74833   -46819.171 6.260864e-05 
    2060 1.4554134e-16 4.6843608e-18   -100.75088    -46817.86 6.321896e-05 
    2070 1.7843596e-16 5.7430997e-18   -100.75343   -46816.548 6.383222e-05 
    2080 2.1878722e-16 7.0418366e-18   -100.75597   -46815.237 6.4448421e-05 
    2090 2.682902e-16 8.6351285e-18   -100.75852   -46813.925 6.5067563e-05 
    2100 3.2902633e-16 1.0589968e-17   -100.76107   -46812.613 6.5689644e-05 
    2110 4.0355178e-16 1.2988627e-17   -100.76361     -46811.3 6.6314664e-05 
    2120 4.9500591e-16 1.5932149e-17   -100.76616   -46809.987 6.6942624e-05 
    2130 6.0724473e-16 1.9544643e-17    -100.7687   -46808.674 6.7573523e-05 
    2140 7.4500489e-16 2.3978561e-17   -100.77125   -46807.361 6.8207361e-05 
    2150 9.1410522e-16 2.9421186e-17    -100.7738   -46806.047 6.8844137e-05 
    2160 1.1216948e-15 3.6102618e-17   -100.77634   -46804.733 6.9483851e-05 
    2170 1.3765576e-15 4.4305576e-17   -100.77889   -46803.419 7.0126503e-05 
    2180 1.6894876e-15 5.4377471e-17   -100.78143   -46802.105 7.0772092e-05 
    2190 2.0737497e-15 6.6745244e-17   -100.78397    -46800.79 7.1420619e-05 
    2200 2.5456464e-15 8.1933605e-17   -100.78652   -46799.475 7.2072083e-05 
    2210 3.1252155e-15 1.0058749e-16   -100.78906   -46798.159 7.2726484e-05 
    2220 3.837088e-15 1.2349966e-16   -100.79161   -46796.844 7.3383821e-05 
    2230 4.7115433e-15 1.5164468e-16   -100.79415   -46795.528 7.4044094e-05 
    2240 5.7858077e-15 1.8622071e-16   -100.79669   -46794.212 7.4707303e-05 
    2250 7.1056521e-15 2.2870093e-16   -100.79924   -46792.895 7.5373447e-05 
    2260 8.7273576e-15 2.8089678e-16   -100.80178   -46791.578 7.6042527e-05 
    2270 1.0720134e-14 3.4503584e-16   -100.80432   -46790.261 7.6714542e-05 
    2280 1.3169098e-14 4.2385765e-16   -100.80687   -46788.944 7.7389491e-05 
    2290 1.6178937e-14 5.2073163e-16   -100.80941   -46787.626 7.8067375e-05 
    2300 1.9878414e-14 6.398022e-16   -100.81195   -46786.309 7.8748193e-05 
    2310 2.442593e-14 7.8616753e-16    -100.8145    -46784.99 7.9431945e-05 
    2320 3.0016346e-14 9.6609939e-16   -100.81704   -46783.672 8.011863e-05 
    2330 3.6889401e-14 1.187314e-15   -100.81958   -46782.353 8.0808249e-05 
    2340 4.5340072e-14 1.4593054e-15   -100.82212   -46781.034  8.15008e-05 
    2350 5.5731325e-14 1.7937559e-15   -100.82466   -46779.715 8.2196284e-05 
    2360 6.8509818e-14 2.2050417e-15   -100.82721   -46778.395 8.2894701e-05 
    2370 8.4225244e-14 2.7108549e-15   -100.82975   -46777.075 8.3596049e-05 
    2380 1.0355415e-13 3.3329707e-15   -100.83229   -46775.755 8.430033e-05 
    2390 1.2732927e-13 4.0981914e-15   -100.83483   -46774.435 8.5007542e-05 
    2400 1.5657565e-13 5.0395089e-15   -100.83737   -46773.114 8.5717685e-05 
    2410 1.9255517e-13 6.1975376e-15   -100.83991   -46771.793 8.6430759e-05 
    2420 2.3682135e-13 7.6222791e-15   -100.84245   -46770.472 8.7146764e-05 
    2430 2.9128692e-13 9.3752957e-15   -100.84499    -46769.15 8.7865699e-05 
    2440 3.5830701e-13 1.1532389e-14   -100.84753   -46767.828 8.8587564e-05 
    2450 4.4078168e-13  1.41869e-14   -100.85007   -46766.506 8.9312359e-05 
    2460 5.4228228e-13 1.7453776e-14   -100.85261   -46765.184 9.0040084e-05 
    2470 6.6720715e-13 2.147458e-14   -100.85515   -46763.861 9.0770738e-05 
    2480 8.209734e-13 2.6423666e-14   -100.85769   -46762.538 9.150432e-05 
    2490 1.0102534e-12 3.2515791e-14   -100.86023   -46761.215 9.2240831e-05 
    2500 1.2432664e-12 4.0015493e-14   -100.86277   -46759.891 9.2980271e-05 
    2510 1.5301371e-12 4.9248651e-14   -100.86531   -46758.567 9.3722638e-05 
    2520 1.8833393e-12 6.0616738e-14   -100.86785   -46757.243 9.4467934e-05 
    2530 2.3182411e-12 7.4614388e-14   -100.87039   -46755.919 9.5216157e-05 
    2540 2.8537777e-12 9.185105e-14   -100.87293   -46754.594 9.5967307e-05 
    2550 3.5132814e-12 1.1307769e-13   -100.87546   -46753.269 9.6721384e-05 
    2560 4.3255042e-12 1.3921971e-13     -100.878   -46751.944 9.7478387e-05 
    2570 5.3258785e-12 1.7141753e-13   -100.88054   -46750.619 9.8238317e-05 
    2580 6.5580728e-12 2.1107666e-13   -100.88308   -46749.293 9.9001173e-05 
    2590 8.0759088e-12 2.5992939e-13   -100.88562   -46747.967 9.9766954e-05 
    2600 9.9457264e-12 3.2011092e-13   -100.88815    -46746.64 0.00010053566 
    2610  1.22493e-11 3.9425323e-13   -100.89069   -46745.314 0.00010130729 
    2620 1.5087436e-11 4.8560084e-13   -100.89323   -46743.987 0.00010208185 
    2630 1.8584408e-11 5.9815361e-13   -100.89576   -46742.659 0.00010285933 
    2640 2.2893432e-11 7.3684289e-13    -100.8983   -46741.332 0.00010363974 
    2650 2.8203414e-11 9.0774878e-13   -100.90084   -46740.004 0.00010442307 
    2660 3.474728e-11 1.1183682e-12   -100.90337   -46738.676 0.00010520932 
    2670 4.2812246e-11 1.3779454e-12   -100.90591   -46737.348 0.0001059985 
    2680 5.2752499e-11 1.6978801e-12   -100.90845   -46736.019 0.0001067906 
    2690 6.500483e-11 2.0922309e-12   -100.91098    -46734.69 0.00010758562 
    2700 8.010793e-11 2.5783359e-12   -100.91352   -46733.361 0.00010838357 
    2710 9.8726203e-11 3.1775795e-12   -100.91605   -46732.031 0.00010918443 
    2720 1.2167914e-10 3.9163377e-12   -100.91859   -46730.702 0.00010998822 
    2730 1.4997759e-10 4.8271452e-12   -100.92112   -46729.371 0.00011079494 
    2740 1.8486848e-10 5.9501356e-12   -100.92366   -46728.041 0.00011160457 
    2750 2.2789006e-10 7.3348185e-12   -100.92619    -46726.71 0.00011241712 
    2760 2.8094005e-10 9.0422736e-12   -100.92873    -46725.38 0.0001132326 
    2770 3.4635976e-10 1.1147858e-11   -100.93126   -46724.048 0.00011405099 
    2780 4.2703793e-10 1.3744547e-11    -100.9338   -46722.717 0.00011487231 
    2790 5.2653892e-10 1.6947064e-11   -100.93633   -46721.385 0.00011569654 
    2800 6.4926089e-10 2.0896966e-11   -100.93887   -46720.053 0.0001165237 
    2810 8.0063121e-10 2.5768937e-11    -100.9414   -46718.721 0.00011735377 
    2820 9.8734751e-10 3.1778546e-11   -100.94393   -46717.388 0.00011818676 
    2830 1.2176755e-09 3.919183e-11   -100.94647   -46716.055 0.00011902268 
    2840 1.5018164e-09 4.8337126e-11     -100.949   -46714.722 0.00011986151 
    2850 1.852361e-09 5.9619677e-11   -100.95153   -46713.389 0.00012070326 
    2860  2.28485e-09 7.3539672e-11   -100.95407   -46712.055 0.00012154792 
    2870 2.818466e-09 9.0714515e-11    -100.9566   -46710.721 0.00012239551 
    2880 3.4768878e-09 1.1190633e-10   -100.95913   -46709.386 0.00012324601 
    2890 4.2893463e-09 1.3805594e-10   -100.96166   -46708.052 0.00012409943 
    2900 5.2919271e-09 1.7032478e-10    -100.9642   -46706.717 0.00012495576 
    2910 6.5291805e-09 2.1014674e-10   -100.96673   -46705.382 0.00012581501 
    2920 8.056109e-09 2.5929212e-10   -100.96926   -46704.046 0.00012667718 
    2930 9.940623e-09 3.1994667e-10   -100.97179   -46702.711 0.00012754227 
    2940 1.2266573e-08 3.9480917e-10   -100.97432   -46701.375 0.00012841027 
    2950 1.5137496e-08 4.8721206e-10   -100.97685   -46700.038 0.00012928118 
    2960 1.8681242e-08 6.0127028e-10   -100.97939   -46698.702 0.00013015501 
    2970 2.3055691e-08 7.4206532e-10   -100.98192   -46697.365 0.00013103176 
    2980 2.8455814e-08 9.1587246e-10   -100.98445   -46696.028 0.00013191142 
    2990 3.5122395e-08 1.1304415e-09   -100.98698    -46694.69 0.00013279399 
    3000 4.335281e-08 1.3953438e-09   -100.98951   -46693.353 0.00013367948 
    3010 5.3514341e-08 1.7224006e-09   -100.99204   -46692.015 0.00013456788 
    3020 6.6060627e-08 2.1262126e-09   -100.99457   -46690.676 0.0001354592 
    3030 8.1551991e-08 2.6248141e-09    -100.9971   -46689.338 0.00013635343 
    3040 1.0068055e-07 3.2404817e-09   -100.99963   -46687.999 0.00013725057 
    3050 1.2430126e-07 4.0007327e-09   -101.00216    -46686.66 0.00013815063 
    3060 1.5347026e-07 4.9395594e-09   -101.00469    -46685.32 0.0001390536 
    3070 1.8949224e-07 6.0989547e-09   -101.00722   -46683.981 0.00013995949 
    3080 2.3397902e-07 7.5307965e-09   -101.00975   -46682.641 0.00014086829 
    3090 2.8892194e-07 9.2991769e-09   -101.01228     -46681.3   0.00014178 
    3100 3.5678125e-07 1.1483281e-08    -101.0148    -46679.96 0.00014269463 
    3110 4.4059666e-07 1.4180945e-08   -101.01733   -46678.619 0.00014361218 
    3120 5.4412399e-07 1.7513053e-08   -101.01986   -46677.278 0.00014453264 
    3130 6.7200397e-07 2.1628969e-08   -101.02239   -46675.936 0.00014545602 
    3140 8.2997095e-07 2.6713259e-08   -101.02492   -46674.595 0.00014638231 
    3150 1.0251109e-06 3.2993989e-08   -101.02745   -46673.253 0.00014731153 
    3160 1.2661801e-06 4.075299e-08   -101.02997   -46671.911 0.00014824367 
    3170 1.5639997e-06 5.0338543e-08    -101.0325   -46670.568 0.00014917874 
    3180 1.9319422e-06 6.218106e-08   -101.03503   -46669.225 0.00015011674 
    3190 2.3865347e-06 7.6812471e-08   -101.03756   -46667.882 0.00015105767 
    3200 2.9482025e-06 9.4890184e-08   -101.04008   -46666.539 0.00015200155 
    3210 3.6421902e-06 1.1722672e-07   -101.04261   -46665.195 0.00015294837 
    3220 4.4996994e-06 1.4482632e-07   -101.04514   -46663.851 0.00015389815 
    3230 5.5592959e-06 1.7893025e-07   -101.04766   -46662.507 0.0001548509 
    3240 6.8686483e-06 2.2107278e-07   -101.05019   -46661.162 0.00015580663 
    3250 8.4866797e-06 2.7315037e-07   -101.05272   -46659.817 0.00015676537 
    3260 1.0486226e-05 3.3750731e-07   -101.05524   -46658.472 0.00015772713 
    3270 1.2957323e-05 4.1704148e-07   -101.05777   -46657.126 0.00015869194 
    3280 1.6011273e-05 5.1533524e-07   -101.06029   -46655.781 0.00015965983 
    3290 1.9785671e-05 6.3681717e-07   -101.06282   -46654.435 0.00016063085 
    3300 2.445062e-05 7.8696218e-07   -101.06534   -46653.088 0.00016160505 
    3310 3.0216418e-05 9.7253885e-07   -101.06787   -46651.741 0.0001625825 
    3320 3.7343061e-05 1.2019154e-06   -101.07039   -46650.394 0.00016356327 
    3330 4.6151999e-05 1.4854379e-06   -101.07292   -46649.047 0.00016454745 
    3340 5.7040672e-05 1.8358983e-06   -101.07544   -46647.699 0.00016553518 
    3350 7.0500484e-05 2.2691128e-06   -101.07797   -46646.351 0.00016652661 
    3360 8.7139035e-05 2.8046375e-06   -101.08049   -46645.002 0.00016752191 
    3370 0.00010770762 3.4666533e-06   -101.08302   -46643.653 0.00016852132 
    3380 0.00013313522 4.2850605e-06   -101.08554   -46642.303 0.00016952513 
    3390 0.00016457059 5.2968322e-06   -101.08807   -46640.953 0.00017053368 
    3400 0.00020343424 6.5476889e-06   -101.09059   -46639.602 0.00017154742 
    3410 0.00025148279 8.0941687e-06   -101.09312    -46638.25 0.00017256687 
    3420 0.00031088855 1.0006189e-05   -101.09564   -46636.898 0.0001735927 
    3430 0.00038433796 1.2370216e-05   -101.09816   -46635.545 0.00017462574 
    3440 0.00047515332 1.5293178e-05   -101.10069    -46634.19 0.00017566701 
    3450 0.00058744341 1.8907322e-05   -101.10322   -46632.835 0.00017671775 
    3460 0.00072628975 2.3376199e-05   -101.10574   -46631.477 0.00017777952 
    3470 0.00089797708 2.8902089e-05   -101.10827   -46630.118 0.00017885425 
    3480 0.0011102784 3.5735171e-05   -101.11079   -46628.757 0.00017994432 
    3490 0.0013728075 4.4184874e-05   -101.11332   -46627.394 0.00018105265 
    3500 0.0016974552 5.4633914e-05   -101.11585   -46626.027 0.00018218289 
    3510 0.0020989292 6.7555666e-05   -101.11838   -46624.656 0.00018333953 
    3520  0.002595421 8.353564e-05   -101.12092   -46623.281 0.00018452813 
    3530 0.0032094322 0.00010329807   -101.12345   -46621.899 0.00018575556 
    3540 0.0039687955 0.00012773876   -101.12599   -46620.511 0.00018703032 
    3550 0.0049079386 0.00015796581   -101.12854   -46619.115 0.00018836293 
    3560 0.0060694472 0.00019534987   -101.13109   -46617.707 0.00018976638 
    3570 0.0075059983 0.00024158638   -101.13364   -46616.287 0.00019125676 
    3580 0.0092827518 0.00029877257   -101.13621   -46614.851 0.00019285396 
    3590  0.011480309 0.00036950265   -101.13878   -46613.395 0.00019458257 
    3600   0.01419837 0.00045698555   -101.14137   -46611.914 0.00019647301 
    3610   0.01756026 0.00056519059   -101.14397   -46610.404 0.00019856291 
    3620  0.021718523 0.0006990275   -101.14659   -46608.857 0.00020089882 
    3630  0.026861839 0.00086456912   -101.14924   -46607.264 0.00020353829 
    3640  0.033223576 0.0010693266   -101.15191   -46605.614 0.00020655253 
    3650  0.041092361 0.0013225895   -101.15463   -46603.894 0.00021002959 
    3660  0.050825133 0.0016358464   -101.15738   -46602.089 0.00021407838 
    3670  0.062863278 0.0020233034    -101.1602   -46600.176 0.00021883363 
    3680  0.077752538 0.0025025258   -101.16308   -46598.133 0.00022446194 
    3690  0.096167588 0.0030952284   -101.16605   -46595.926 0.00023116936 
    3700   0.11894233 0.0038282513   -101.16913   -46593.518 0.0002392107 
    3710   0.14710725  0.004734761   -101.17234   -46590.863 0.00024890108 
    3720   0.18193533 0.0058557299   -101.17571     -46587.9 0.00026063013 
    3730   0.22499859 0.0072417541   -101.17929    -46584.56 0.00027487957 
    3740   0.27823734 0.0089552849   -101.18311   -46580.753 0.00029224488 
    3750   0.34404518  0.011073361   -101.18724   -46576.372 0.00031346206 
    3760   0.42537264  0.013690949   -101.19175   -46571.281 0.00033944054 
    3770   0.52585356  0.016925005   -101.19673   -46565.319 0.00037130378 
    3780   0.64995825  0.020919411   -101.20229   -46558.285 0.00041043907 
    3790   0.80317845  0.025850922   -101.20856   -46549.936 0.00045855876 
    3800   0.99224898  0.031936303    -101.2157   -46539.976 0.00051777528 
    3810    1.2254113  0.039440815   -101.22392   -46528.046 0.00059069274 
    3820    1.5127239  0.048688194   -101.23346   -46513.716 0.00068051864 
    3830    1.8664217   0.06007223   -101.24461   -46496.469 0.00079119952 
    3840    2.3013256  0.074069952   -101.25773   -46475.696 0.00092758482 
    3850    2.8352974  0.091256247   -101.27325   -46450.679 0.0010956238 
    3860    3.4897248    0.1123195   -101.29169   -46420.586 0.0013026005 
    3870    4.2900141   0.13807743   -101.31363   -46384.468 0.0015574112 
    3880    5.2660441   0.16949172   -101.33978   -46341.262 0.0018708891 
    3890    6.4525173   0.20767928   -101.37095   -46289.804 0.0022561772 
    3900     7.889113   0.25391723   -101.40805   -46228.854 0.0027291508 
    3910    9.6203215   0.30963752   -101.45205   -46157.128 0.0033088827 
    3920    11.694819   0.37640683   -101.50402   -46073.337 0.0040181416 
    3930    14.164249   0.45588733   -101.56504   -45976.212 0.0048839034 
    3940    17.081322   0.54977561   -101.63612   -45864.491 0.0059378501 
    3950    20.497267   0.65972043   -101.71819   -45736.849 0.0072168217 
    3960    24.458805   0.78722563   -101.81192   -45591.737 0.0087631837 
    3970    29.005034   0.93354954   -101.91772   -45427.156  0.010625077 
    3980    34.164664    1.0996162   -102.03561    -45240.43  0.012856526 
    3990    39.954012    1.2859509    -102.1652   -45028.076  0.015517396 
    4000    46.375861    1.4926431    -102.3057   -44785.904  0.018673196 
    4010    53.419031     1.719333    -102.4559   -44509.311  0.022394748 
    4020    61.058404    1.9652121   -102.61419   -44193.727   0.02675771 
    4030    69.255189     2.229032   -102.77867   -43835.062  0.031841968 
    4040    77.957441    2.5091207   -102.94708   -43430.029  0.037730896 
    4050    87.101196    2.8034196   -103.11695   -42976.255  0.044510494 
    4060    96.612565    3.1095504   -103.28564   -42472.351  0.052268445 
    4070    106.41063    3.4249089   -103.45043   -41918.057   0.06109312 
    4080    116.41078    3.7467715   -103.60868    -41314.39  0.071072598 
    4090    126.52817    4.0724075   -103.75789   -40663.703  0.082293714 
    4100    136.68118      4.39919   -103.89582    -39969.64  0.094841182 
    4110    146.79461    4.7246983   -104.02058   -39236.972   0.10879681 
    4120    156.80242    5.0468076   -104.13069   -38471.247   0.12423881 
    4130    166.65019    5.3637656   -104.22512   -37678.323   0.14124127 
    4140    176.29676    5.6742482   -104.30335   -36863.941   0.15987365 
    4150    185.71488    5.9773774   -104.36533   -36033.373   0.18020053 
    4160    194.89028    6.2726951   -104.41147   -35191.081   0.20228128 
    4170    203.81971    6.5600954   -104.44251   -34340.327   0.22616985 
    4180    212.50819    6.8397411   -104.45944   -33482.737   0.25191446 
    4190     220.9668    7.1119878   -104.46344   -32618.016   0.27955723 
    4200    229.21085    7.3773291   -104.45578    -31744.03   0.30913362 
    4210    237.25811    7.6363365   -104.43778   -30857.424   0.34067173 
    4220    245.12577    7.8895631   -104.41074   -29954.405   0.37419125 
    4230    252.82887    8.1374933   -104.37585   -29030.411   0.40970201 
    4240    260.39074    8.3808781   -104.33454   -28077.928   0.44720255 
    4250    267.87272    8.6216915   -104.28947   -27085.062   0.48667972 
    4260    275.41005    8.8642863   -104.24554   -26037.275   0.52811066 
    4270    283.23125    9.1160177   -104.21058   -24921.947   0.57146742 
    4280    291.64078    9.3866847   -104.19464   -23734.036   0.61672312 
    4290    300.95899    9.6865985   -104.20819   -22478.632   0.66385804 
    4300    311.44582    10.024125   -104.25972   -21165.627   0.71286364 
    4310    323.24851    10.404004   -104.35428   -19803.439   0.76374529 
    4320    336.36517    10.826174   -104.49251   -18400.328   0.81652422 
    4330    350.61631    11.284858   -104.66989   -16967.755   0.87123791 
    4340     365.6375    11.768327   -104.87672    -15520.96   0.92793714 
    4350    380.91847    12.260157   -105.09939   -14077.857    0.9866803 
    4360    395.91583    12.742858   -105.32404    -12655.81    1.0475288 
    4370    410.14403    13.200804   -105.53918   -11271.768    1.1105465 
    4380    423.18218    13.620447   -105.73578   -9934.8107    1.1757966 
    4390    434.67967    13.990502    -105.9071   -8645.4314    1.2433327 
    4400    444.33094    14.301136    -106.0477   -7402.3519    1.3131857 
    4410    451.87081    14.543813   -106.15304   -6211.4515    1.3853494 
    4420    457.10931    14.712418   -106.22036   -5079.8527    1.4597708 
    4430    459.91451    14.802705   -106.24787   -4013.5632    1.5363473 
    4440    460.18072    14.811274   -106.23362   -3024.0057    1.6149244 
    4450    457.90173    14.737922   -106.17763   -2118.5972    1.6952934 
    4460    453.28694    14.589392   -106.08563   -1300.2132    1.7771973 
    4470    446.77142    14.379685   -105.96942   -567.68806    1.8603432 
    4480     438.9242    14.127116   -105.84421    79.855786    1.9444147 
    4490    430.37192    13.851854   -105.72657    641.28595    2.0290848 
    4500    421.73681    13.573926   -105.63275    1121.0891    2.1140285 
    4510     413.5577    13.310676   -105.57653    1527.0027    2.1989346 
    4520    406.21259    13.074268   -105.56692    1860.9015    2.2835131 
    4530    399.89301    12.870867   -105.60748    2114.5934    2.3675002 
    4540    394.58438    12.700005   -105.69557    2283.0784    2.4506619 
    4550    390.04391    12.553866   -105.82156    2371.6492    2.5327943 
    4560    385.84921    12.418856   -105.97011    2389.2058    2.6137183 
    4570    381.49118     12.27859   -106.12292    2341.6214    2.6932715 
    4580    376.48159    12.117352   -106.26202    2239.5309    2.7712965 
    4590    370.43424    11.922714   -106.37232    2098.3738    2.8476269 
    4600    363.18246    11.689309   -106.44544    1933.1102    2.9220758 
    4610    354.87829    11.422033   -106.48316    1760.3303    2.9944389 
    4620    345.90961    11.133369   -106.49511    1597.9714    3.0645108 
    4630     336.7196    10.837582    -106.4932    1447.6813    3.1321022 
    4640    327.70273    10.547367   -106.48838    1303.3358    3.1970543 
    4650    319.15527     10.27226   -106.48901    1160.7575    3.2592538 
    4660    311.25075    10.017847   -106.50002    1025.2091    3.3186452 
    4670     304.0389    9.7857281   -106.52271    902.92363     3.375231 
    4680    297.52135    9.5759555   -106.55706    795.50828    3.4290634 
    4690    291.72808    9.3894947   -106.60415    700.88351    3.4802334 
    4700    286.73491    9.2287858   -106.66673     613.9003    3.5288614 
    4710    282.61109    9.0960574   -106.74752    538.95594    3.5750899 
    4720    279.28393      8.98897   -106.84475    490.83571    3.6190767 
    4730    276.55032    8.9009868   -106.95241    474.61029      3.66098 
    4740    274.19019    8.8250241   -107.06383    482.49601    3.7009455 
    4750    272.03172     8.755552   -107.17375    498.79791    3.7391014 
    4760    269.97349    8.6893063    -107.2791    505.96904    3.7755622 
    4770    267.98383    8.6252677   -107.37898    493.28901    3.8104358 
    4780    266.07215    8.5637387   -107.47381    458.32455    3.8438303 
    4790    264.23604    8.5046419   -107.56361    406.35747    3.8758589 
    4800    262.43232    8.4465877   -107.64708    348.48416    3.9066437 
    4810    260.56014    8.3863302   -107.72099    294.81353    3.9363182 
    4820    258.45409    8.3185454   -107.77995    250.86437     3.965026 
    4830    255.94325    8.2377323   -107.81828    216.02365    3.9929137 
    4840    252.96285    8.1418056   -107.83362    185.06872    4.0201237 
    4850    249.65559    8.0353591   -107.83027    156.31502    4.0467882 
    4860    246.38786    7.9301845   -107.81981     131.4621    4.0730234 
    4870    243.65194    7.8421269   -107.81806    112.42477    4.0989265 
    4880    241.90307    7.7858381   -107.83986    102.21134    4.1245757 
    4890    241.39856    7.7695999   -107.89381    98.790342    4.1500317 
    4900    242.12874    7.7931013   -107.98001    95.568355    4.1753387 
    4910    243.88147    7.8495145   -108.09201    87.280705    4.2005232 
    4920    246.37694    7.9298331   -108.22119    76.278337     4.225596 
    4930    249.33576    8.0250648   -108.35888    73.974283     4.250554 
    4940    252.50241     8.126986   -108.49718    88.428144    4.2753837 
    4950    255.68426    8.2293963   -108.63018    117.60817    4.3000666 
    4960    258.75899     8.328359   -108.75423    153.87599    4.3245844 
    4970    261.64426    8.4212234   -108.86696    190.57048    4.3489225 
    4980    264.28625    8.5062582   -108.96691    222.98546    4.3730701 
    4990    266.70371    8.5840657   -109.05495    247.01736    4.3970179 
    5000    269.02778    8.6588678   -109.13554    259.15593    4.4207547 
    5010    271.45641    8.7370353   -109.21533    256.13261    4.4442644 
    5020    274.15839    8.8240005   -109.30002    234.20874    4.4675235 
    5030    277.16828    8.9208763   -109.39106    191.66542    4.4905033 
    5040    280.31031    9.0220049   -109.48315    130.45132    4.5131708 
    5050    283.23008      9.11598   -109.56529    56.980091      4.53549 
    5060    285.52734    9.1899189     -109.625   -17.065977    4.5574232 
    5070    286.89144    9.2338237   -109.65264   -72.211468    4.5789321 
    5080    287.19649     9.243642   -109.64439    -91.48752    4.5999795 
    5090    286.53992    9.2225097    -109.6035   -68.870407    4.6205277 
    5100    285.20354    9.1794972   -109.53902   -2.9747086    4.6405422 
    5110    283.54375    9.1260757   -109.46228    104.46136     4.659997 
    5120    281.87142    9.0722503   -109.38305    244.96936    4.6788844 
    5130    280.37839    9.0241961   -109.30729    402.34756    4.6972198 
    5140    279.13726    8.9842492   -109.23712    554.29182    4.7150421 
    5150    278.15447    8.9526176   -109.17254    681.93362    4.7324065 
    5160    277.43931    8.9295997    -109.1137    777.68745    4.7493712 
    5170    277.06429    8.9175293   -109.06281    845.33075    4.7659865 
    5180    277.17181    8.9209898   -109.02435    891.59428     4.782296 
    5190    277.87839    8.9437317   -109.00202    919.90758    4.7983477 
    5200    279.15044    8.9846735   -108.99474     933.4858    4.8142073 
    5210    280.75424    9.0362932   -108.99507    934.20538    4.8299654 
    5220     282.3036    9.0861603   -108.99077    922.71765    4.8457369 
    5230    283.37693    9.1207063   -108.96853    900.71766    4.8616544 
    5240    283.65405    9.1296258   -108.91834    869.68363    4.8778594 
    5250    283.00054     9.108592   -108.83609    833.35955    4.8944943 
    5260    281.45601    9.0588801   -108.72318    800.55804    4.9116939 
    5270    279.17406    8.9854338   -108.58454     781.4852    4.9295738 
    5280    276.42714    8.8970221   -108.42879    780.28794    4.9482226 
    5290    273.65122     8.807677   -108.26971    792.76212    4.9676971 
    5300    271.43566    8.7363675   -108.12587    808.48174    4.9880208 
    5310    270.44997    8.7046421   -108.01835     816.3237    5.0091877 
    5320    271.32548    8.7328211   -107.96695     807.2064    5.0311726 
    5330    274.50051    8.8350119   -107.98532    776.26103     5.053946 
    5340    280.05707    9.0138541   -108.07578    724.45903    5.0774884 
    5350    287.66162    9.2586125   -108.22765    656.41353    5.1017943 
    5360    296.63726    9.5475003   -108.41964    580.59469    5.1268642 
    5370    306.08129    9.8514637   -108.62378    502.38849    5.1526893 
    5380    315.00963    10.138829   -108.80997    425.29486    5.1792362 
    5390    322.51194    10.380297   -108.95083    360.63374    5.2064372 
    5400    327.86659    10.552641   -109.02509    320.68577    5.2341862 
    5410    330.64795    10.642161   -109.02084     311.6001    5.2623385 
    5420    330.80892    10.647342   -108.93785    335.00779    5.2907141 
    5430    328.70343    10.579575   -108.78815    387.44142    5.3191071 
    5440    325.04297     10.46176   -108.59466    459.52943     5.347303 
    5450    320.73826     10.32321   -108.38619    535.68724    5.3751028 
    5460    316.67668    10.192485   -108.19047    599.25644    5.4023452 
    5470    313.51074    10.090586   -108.02758    639.12857    5.4289202 
    5480    311.59082    10.028792   -107.90798    654.73314     5.454771 
    5490    311.02268    10.010506   -107.83447    655.60048    5.4798888 
    5500    311.75506    10.034079   -107.80505    647.43945    5.5043096 
    5510    313.64681    10.094966   -107.81508    633.51914    5.5281119 
    5520    316.47135    10.185876   -107.85745    620.34952    5.5514126 
    5530    319.95948    10.298144   -107.92389    617.93252    5.5743606 
    5540    323.81354     10.42219   -108.00542    630.41017    5.5971272 
    5550    327.61493    10.544541   -108.08928    657.51086    5.6198991 
    5560    330.79569    10.646916     -108.158    699.97329    5.6428698 
    5570    332.76282     10.71023   -108.19325    762.00036    5.6662309 
    5580    333.10938    10.721384   -108.18245    849.09076    5.6901617 
    5590    331.76943    10.678256   -108.12366      964.237      5.71482 
    5600    329.02642    10.589971    -108.0258    1097.5224     5.740334 
    5610    325.41488    10.473731   -107.90555    1229.4093    5.7667964 
    5620    321.60929    10.351245   -107.78389    1342.1114     5.794263 
    5630    318.20939    10.241816   -107.67937     1424.834    5.8227597 
    5640    315.56102    10.156576   -107.60247     1468.064    5.8522846 
    5650     313.7622     10.09868   -107.55586    1464.9924     5.882809 
    5660    312.71745    10.065054   -107.53615    1415.1418    5.9142816 
    5670    312.19607    10.048273   -107.53575    1323.0364     5.946634 
    5680    311.91123    10.039105   -107.54535    1203.3279    5.9797826 
    5690    311.62046    10.029746   -107.55709    1082.7343    6.0136245 
    5700    311.18279     10.01566   -107.56637    980.10375    6.0480278 
    5710    310.59301    9.9966771   -107.57293    899.90796    6.0828254 
    5720    310.03977    9.9788705   -107.58273     845.3957    6.1178166 
    5730    309.83519    9.9722859   -107.60575    819.89636    6.1527782 
    5740    310.28449    9.9867471   -107.65181    814.06011     6.187482 
    5750    311.58982     10.02876    -107.7276    815.01158    6.2217163 
    5760    313.76244    10.098688   -107.83381    817.47003    6.2553069 
    5770    316.54321    10.188189   -107.96258    823.61844    6.2881277 
    5780    319.37687    10.279392    -108.0966    833.66244    6.3200963 
    5790    321.55072     10.34936    -108.2134    843.07148     6.351161 
    5800    322.43826    10.377926   -108.29309    848.97125    6.3812868 
    5810    321.71576    10.354671   -108.32517    854.95153    6.4104444 
    5820    319.45108    10.281781   -108.31139    862.53769    6.4386067 
    5830    316.05186    10.172375   -108.26417    873.63017    6.4657517 
    5840    312.12949     10.04613   -108.20237    890.79481    6.4918642 
    5850    308.37438    9.9252686   -108.14746    913.42525    6.5169385 
    5860    305.37411    9.8287026   -108.11777    935.73275    6.5409836 
    5870    303.45457     9.766921   -108.12348    950.86585     6.564033 
    5880    302.60138    9.7394602   -108.16402    961.59955    6.5861532 
    5890    302.50059    9.7362164   -108.22934    974.31277    6.6074402 
    5900    302.69701    9.7425383   -108.30489    992.14003    6.6280118 
    5910    302.74332    9.7440286    -108.3763     1016.296    6.6480025 
    5920    302.28001    9.7291169   -108.43193    1045.0602    6.6675585 
    5930    301.10532    9.6913084   -108.46503    1070.7191    6.6868303 
    5940    299.21277    9.6303951   -108.47505    1083.1935      6.70597 
    5950    296.72225     9.550236   -108.46538    1074.8866    6.7251273 
    5960    293.81249    9.4565829   -108.44124    1037.5588    6.7444373 
    5970    290.69641    9.3562895   -108.40897    966.13496    6.7640092 
    5980    287.61854    9.2572258   -108.37597    867.20947    6.7839251 
    5990    284.80748    9.1667496   -108.34918    752.91836    6.8042454 
    6000    282.43737     9.090466    -108.3339    633.36318    6.8250144 
    6010    280.63691    9.0325167   -108.33408    518.97162    6.8462586 
    6020    279.47921    8.9952554   -108.35197    424.60268    6.8679868 
    6030    278.95624     8.978423   -108.38728    358.65268     6.890191 
    6040     278.9964    8.9797156   -108.43778    315.72642    6.9128493 
    6050    279.51397    8.9963739    -108.5008    277.83375    6.9359285 
    6060    280.46358    9.0269378   -108.57503    223.58508    6.9593882 
    6070    281.87735    9.0724411   -108.66171    140.85752    6.9831838 
    6080    283.83312    9.1353893   -108.76362    28.534863    7.0072739 
    6090    286.35342    9.2165071   -108.88182   -106.11046    7.0316311 
    6100    289.32308    9.3120878   -109.01305   -254.00481    7.0562489 
    6110    292.48544    9.4138708    -109.1495   -409.35253    7.0811424 
    6120    295.48412    9.5103859   -109.28018   -567.25834    7.1063421 
    6130    297.92552    9.5889642   -109.39283    -723.9701    7.1318822 
    6140    299.49291    9.6394116   -109.47755   -878.23167    7.1577838 
    6150     300.0508    9.6573679   -109.53013   -1025.0231    7.1840409 
    6160    299.65481    9.6446226   -109.55234   -1153.7446    7.2106135 
    6170    298.51501    9.6079372   -109.55077   -1259.4147    7.2374287 
    6180    296.95496    9.5577257   -109.53558   -1344.3591    7.2643917 
    6190    295.33694    9.5056487   -109.51818   -1406.1647    7.2914042 
    6200      293.977    9.4618778   -109.50849   -1439.1595    7.3183835 
    6210    293.07124    9.4327252   -109.51265   -1446.0959    7.3452759 
    6220    292.64966    9.4191566   -109.53156   -1438.4557    7.3720634 
    6230      292.577    9.4168177   -109.56084    -1429.049    7.3987658 
    6240    292.62112     9.418238   -109.59302   -1423.8431    7.4254337 
    6250    292.49076    9.4140421   -109.61874   -1423.1979    7.4521386 
    6260    291.86898    9.3940297   -109.62773   -1420.9288    7.4789613 
    6270    290.50502    9.3501297   -109.61177   -1406.2505    7.5059792 
    6280    288.30946    9.2794637   -109.56769   -1371.6155    7.5332545 
    6290    285.38937    9.1854784   -109.49854   -1312.9745     7.560827 
    6300    282.02151    9.0770811   -109.41277   -1228.3764    7.5887132 
    6310    278.58266     8.966399   -109.32204   -1124.7113      7.61691 
    6320    275.46595    8.8660853   -109.23854   -1017.2786    7.6454064 
    6330    273.01757    8.7872824   -109.17306   -921.06638    7.6741996 
    6340    271.48284    8.7378859   -109.13324   -838.18825    7.7033103 
    6350    270.96373    8.7211779    -109.1222    -765.0112     7.732787 
    6360    271.40424     8.735356   -109.13811   -699.47094       7.7627 
    6370    272.61575    8.7743495   -109.17494   -639.08373    7.7931279 
    6380    274.36749    8.8307305    -109.2254   -579.52795    7.8241398 
    6390    276.51612    8.8998859   -109.28508   -516.46717    7.8557817 
    6400    279.08108    8.9824412   -109.35484   -449.25414    7.8880738 
    6410    282.16845    9.0818106   -109.43843    -382.1291    7.9210188 
    6420     285.7623    9.1974813   -109.53571    -320.7581    7.9546132 
    6430    289.54345    9.3191807   -109.63688   -269.31631    7.9888546 
    6440    292.91507    9.4276989   -109.72326      -229.76    8.0237384 
    6450    295.26357    9.5032872   -109.77566   -201.43702    8.0592455 
    6460    296.25094    9.5350663   -109.78364   -185.90631    8.0953283 
    6470    295.92298    9.5245109   -109.74896    -183.6201    8.1319032 
    6480    294.62043    9.4825871   -109.68262   -191.63102    8.1688535 
    6490    292.79556    9.4238524   -109.59906   -204.12938     8.206043 
    6500    290.84371    9.3610305   -109.51074   -216.02699    8.2433299 
    6510    289.00536    9.3018618   -109.42513   -222.39144    8.2805748 
    6520    287.33822    9.2482036   -109.34378   -214.11704    8.3176433 
    6530     285.7853    9.1982217   -109.26461   -184.02124    8.3544036 
    6540    284.29418    9.1502289    -109.1857    -132.4286    8.3907222 
    6550    282.89423    9.1051703   -109.10778   -66.239195    8.4264601 
    6560    281.70184    9.0667924   -109.03439    3.6812867    8.4614759 
    6570    280.87674    9.0402359   -108.97049    65.812758    8.4956338 
    6580    280.51852    9.0287064    -108.9191    114.02131    8.5288087 
    6590    280.59893    9.0312944   -108.87923     149.4041    8.5608824 
    6600    281.03702    9.0453945   -108.84821    180.11699    8.5917362 
    6610    281.78038    9.0693202   -108.82437    214.77545    8.6212544 
    6620    282.79779    9.1020663   -108.80676    255.59824    8.6493421 
    6630    284.04395    9.1421749   -108.79403      298.203    8.6759434 
    6640      285.447    9.1873331     -108.784    334.70353    8.7010528 
    6650    286.90576    9.2342846    -108.7736    360.39728    8.7247177 
    6660     288.3069    9.2793813    -108.7594     376.6981    8.7470367 
    6670    289.55044    9.3194055   -108.73841    383.40398    8.7681587 
    6680    290.55944    9.3518811   -108.70839    377.55228    8.7882803 
    6690    291.29939    9.3756968   -108.66842    359.27699     8.807638 
    6700    291.80624    9.3920102   -108.61985    333.79926     8.826492 
    6710    292.20347    9.4047955   -108.56677    308.69839    8.8451072 
    6720    292.68532    9.4203041   -108.51551    286.43467    8.8637372 
    6730    293.44951    9.4449003   -108.47246    265.43722    8.8826142 
    6740      294.628    9.4828307   -108.44192    246.65555    8.9019433 
    6750    296.25834    9.5353047   -108.42518    237.22897    8.9218973 
    6760    298.31106     9.601373   -108.42145    243.96091    8.9426049 
    6770    300.72539    9.6790802     -108.429     264.0426    8.9641367 
    6780     303.3913    9.7648844   -108.44462    293.70218    8.9864984 
    6790    306.13739    9.8532694   -108.46319    329.82964     9.009637 
    6800     308.7662    9.9378798   -108.47883    365.69748    9.0334516 
    6810    311.09007    10.012675   -108.48599    393.77248    9.0578084 
    6820    312.96943    10.073164   -108.48067    411.96408     9.082554 
    6830    314.35614    10.117796   -108.46176    419.94832     9.107526 
    6840     315.2599    10.146885   -108.42991    416.95239    9.1325599 
    6850    315.69826    10.160994   -108.38594    411.14934    9.1574962 
    6860    315.71123    10.161411   -108.33129      414.685    9.1821814 
    6870    315.38331    10.150857   -108.26875    434.10373    9.2064651 
    6880    314.85513    10.133857   -108.20281    470.85251    9.2301977 
    6890    314.32775    10.116883   -108.13987    519.86548    9.2532368 
    6900    314.06725    10.108498   -108.08836    569.39924    9.2754593 
    6910    314.36801    10.118178   -108.05766    607.55085    9.2967779 
    6920     315.4194    10.152018   -108.05384    629.85503    9.3171539 
    6930    317.20688     10.20955   -108.07653    640.99231    9.3366051 
    6940    319.52234    10.284075   -108.11929    647.39152    9.3552064 
    6950    322.03467    10.364936   -108.17188    655.53555    9.3730844 
    6960    324.34406    10.439265    -108.2219    673.75964    9.3904056 
    6970     326.0537    10.494292   -108.25707    708.82589    9.4073579 
    6980    326.88746    10.521127   -108.26889    763.10982    9.4241292 
    6990    326.75367    10.516821   -108.25464    832.45767    9.4408839 
    7000    325.71974    10.483543   -108.21647    906.84729    9.4577441 
    7010     323.9984     10.42814   -108.16105    978.57393    9.4747752 
    7020    321.95478    10.362364   -108.09978    1040.8873    9.4919842 
    7030    320.05393    10.301184   -108.04724    1087.5525    9.5093309 
    7040    318.74969    10.259206   -108.01768    1114.1213    9.5267481 
    7050    318.32976     10.24569   -108.02014    1119.8124    9.5441642 
    7060    318.79922      10.2608   -108.05476    1108.8598    9.5615147 
    7070    319.89652    10.296118   -108.11324    1083.6341    9.5787435 
    7080     321.1904    10.337762   -108.18194    1048.0354    9.5958027 
    7090    322.23977    10.371537    -108.2469    1005.5719     9.612653 
    7100    322.77359    10.388718   -108.29956    967.42293    9.6292609 
    7110    322.77598    10.388795   -108.33945    944.06057    9.6456018 
    7120    322.41113    10.377052    -108.3718    933.24181    9.6616673 
    7130    321.89056    10.360297   -108.40332    926.82106    9.6774635 
    7140     321.3851    10.344029   -108.43937    917.58231    9.6929988 
    7150     320.9561    10.330221   -108.48183     902.6579    9.7082762 
    7160    320.56206    10.317539   -108.52929    886.97291    9.7232923 
    7170     320.0985    10.302619   -108.57827    881.28571    9.7380377 
    7180    319.41565    10.280641   -108.62382    893.90161    9.7524968 
    7190    318.35762    10.246587    -108.6607    928.48043    9.7666487 
    7200    316.82105    10.197131   -108.68527    977.95286    9.7804689 
    7210    314.80218    10.132153   -108.69696    1026.6014    9.7939329 
    7220    312.41144    10.055205   -108.69884     1059.295      9.80702 
    7230    309.88217     9.973798   -108.69788    1066.3033    9.8197153 
    7240    307.51603    9.8976422   -108.70334    1039.9351    9.8320115 
    7250    305.54617    9.8342405   -108.72236    977.05252    9.8439035 
    7260    304.00828    9.7847424   -108.75587    881.62443     9.855378 
    7270    302.68274    9.7420789   -108.79661    768.69039    9.8664006 
    7280     301.1929    9.6941272   -108.83222     658.3293    9.8769117 
    7290    299.18529    9.6295108   -108.85099    564.51388    9.8868298 
    7300    296.48405    9.5425692   -108.84673    491.08713    9.8960602 
    7310    293.15813    9.4355218   -108.82105    436.98038    9.9045049 
    7320    289.51852    9.3183781   -108.78333    400.05715    9.9120761 
    7330    286.04055     9.206437   -108.74831     375.0976    9.9187128 
    7340    283.18525    9.1145371   -108.73048    357.84575     9.924399 
    7350    281.21703    9.0511883   -108.73817    344.57465    9.9291749 
    7360    280.10388    9.0153608   -108.77033    335.87228    9.9331356 
    7370    279.58119    8.9985377   -108.81848    334.50478    9.9364191 
    7380     279.3387    8.9907329   -108.87268    338.27788    9.9391907 
    7390    279.15513    8.9848245   -108.92583    343.28942    9.9416285 
    7400    278.93277    8.9776678   -108.97478    348.55257    9.9439145 
    7410    278.66488    8.9690453   -109.01928    353.93725    9.9462296 
    7420    278.36788    8.9594864   -109.05983    355.64712    9.9487495 
    7430    278.00748    8.9478866    -109.0953    348.12424    9.9516421 
    7440    277.46341    8.9303751   -109.12176    329.62904    9.9550635 
    7450    276.56579    8.9014845   -109.13363    301.77979    9.9591518 
    7460    275.18959    8.8571906   -109.12672    268.66765    9.9640192 
    7470     273.3292    8.7973125   -109.10061    231.23324    9.9697456 
    7480    271.11669     8.726101   -109.05928    185.55027    9.9763789 
    7490    268.82718    8.6524115   -109.01131    128.55689    9.9839373 
    7500    266.86305    8.5891944   -108.96938    60.293445    9.9924129 
    7510     265.6665    8.5506824   -108.94758   -19.178352     10.00178 
    7520    265.58284    8.5479899   -108.95694   -110.65454    10.012002 
    7530    266.76373    8.5859977   -109.00239   -215.92499    10.023048 
    7540    269.15435    8.6629416   -109.08233   -335.24619    10.034893 
    7550    272.54072    8.7719347   -109.19014   -463.61318    10.047521 
    7560    276.59568    8.9024466   -109.31569   -597.14663    10.060918 
    7570     280.9282    9.0418921   -109.44688   -739.36654    10.075063 
    7580    285.15907    9.1780661   -109.57205   -881.75703    10.089925 
    7590    288.91261    9.2988764    -109.6797   -1002.0111    10.105458 
    7600    291.81988    9.3924493   -109.75852   -1086.2252    10.121603 
    7610    293.64159    9.4510823   -109.80127   -1138.6363    10.138286 
    7620    294.37354    9.4746408   -109.80815   -1173.2075    10.155423 
    7630    294.28373    9.4717501   -109.78798   -1200.5001    10.172914 
    7640    293.83368    9.4572651   -109.75562   -1222.8613    10.190648 
    7650    293.50714    9.4467551    -109.7266   -1234.8292    10.208512 
    7660    293.67363    9.4521136   -109.71275    -1230.659     10.22641 
    7670    294.56275    9.4807307   -109.72143   -1213.2204    10.244266 
    7680    296.30902    9.5369357   -109.75707    -1190.348     10.26204 
    7690    298.95278    9.6220272   -109.82118   -1168.4621    10.279731 
    7700     302.4562    9.7347876    -109.9129   -1154.7722    10.297383 
    7710    306.72769    9.8722686   -110.02981    -1144.128     10.31509 
    7720    311.53925    10.027133   -110.16525   -1122.5068    10.332979 
    7730    316.46288    10.185603   -110.30629   -1083.1656    10.351197 
    7740    320.83468    10.326313   -110.43247   -1022.4369    10.369904 
    7750    323.78475    10.421263   -110.51667   -933.96102     10.38926 
    7760    324.43923    10.442328   -110.53139   -814.21742    10.409412 
    7770    322.21651    10.370788   -110.45809    -666.7636    10.430472 
    7780    317.05248     10.20458   -110.29426   -495.84441    10.452491 
    7790    309.50784    9.9617502   -110.05694   -295.89435    10.475447 
    7800    300.69169    9.6779956   -109.78042   -61.691361    10.499243 
    7810    291.98379    9.3977248   -109.50762    197.02138     10.52373 
    7820    284.71825    9.1638779   -109.28014    458.02662    10.548736 
    7830    279.93331    9.0098708   -109.13038    693.55782    10.574096 
    7840    278.20257    8.9541657    -109.0762    882.43744    10.599675 
    7850    279.53388     8.997015   -109.11764    1012.8408    10.625374 
    7860    283.45765    9.1233045   -109.23974    1078.4255    10.651132 
    7870    289.23228    9.3091654   -109.41912     1081.382    10.676923 
    7880    296.04943    9.5285808   -109.63052    1031.7624    10.702748 
    7890    303.16833    9.7577079   -109.85113    943.76806    10.728634 
    7900    309.96849    9.9765764   -110.06212    833.70456    10.754629 
    7910    315.95664     10.16931   -110.24882    718.05917    10.780801 
    7920    320.72838    10.322892   -110.39934    608.64118    10.807224 
    7930    323.92019    10.425623   -110.50289    517.07476     10.83398 
    7940    325.17617    10.466048   -110.54867    450.00279    10.861134 
    7950    324.21872    10.435231   -110.52793    398.81303    10.888711 
    7960    320.97919    10.330964   -110.43822    346.99166    10.916675 
    7970    315.69398    10.160856   -110.28639     282.4984     10.94492 
    7980    308.94949    9.9437791   -110.09022    199.37188    10.973285 
    7990    301.61957      9.70786   -109.87653    96.592136    11.001565 
    8000    294.66101    9.4838933   -109.67487   -25.422394    11.029529 
    8010    288.88419    9.2979617   -109.51027   -163.06624    11.056952 
    8020    284.77428    9.1656812   -109.39758   -306.34934    11.083639 
    8030    282.41757    9.0898285   -109.33911    -445.0773    11.109439 
    8040    281.55488    9.0620624   -109.32629   -576.25542    11.134249 
    8050    281.76689    9.0688862   -109.34557   -693.60395    11.158005 
    8060    282.61807     9.096282   -109.38298   -787.12274    11.180682 
    8070    283.74187    9.1324522   -109.42685   -854.55484    11.202291 
    8080     284.9248    9.1705259   -109.47047   -899.34395    11.222879 
    8090    286.11933    9.2089728   -109.51248   -927.44687    11.242532 
    8100    287.33653    9.2481492   -109.55339   -937.22561    11.261378 
    8110    288.54557     9.287063   -109.59238   -918.79959    11.279579 
    8120    289.66606    9.3231269   -109.62705   -862.79702    11.297321 
    8130    290.61486    9.3536649   -109.65488   -763.05166    11.314798 
    8140    291.35748    9.3775666    -109.6749    -619.7252    11.332203 
    8150    291.91365    9.3954674   -109.68786   -442.69777     11.34971 
    8160    292.28842    9.4075298   -109.69401   -250.53948    11.367472 
    8170    292.39675    9.4110165   -109.69066   -68.952685    11.385606 
    8180    292.10382     9.401588   -109.67351    78.204483    11.404189 
    8190    291.34959    9.3773126   -109.64059    179.83637    11.423248 
    8200    290.19991    9.3403094    -109.5939     236.8396    11.442774 
    8210    288.79787    9.2951834   -109.53791    254.08807    11.462732 
    8220    287.32909    9.2479097   -109.47839    236.77086    11.483077 
    8230    285.99746    9.2050501   -109.42168    194.56084    11.503765 
    8240    284.99071    9.1726472   -109.37364    142.36629    11.524766 
    8250    284.45057    9.1552624   -109.33866    94.046412    11.546076 
    8260    284.45491    9.1554019   -109.31913    56.718768    11.567721 
    8270    285.00398    9.1730743   -109.31504    33.414806    11.589754 
    8280    286.03328    9.2062032   -109.32434    29.485932    11.612244 
    8290    287.43739    9.2513954   -109.34374    47.341377     11.63527 
    8300    289.07837    9.3042117   -109.36898    85.723123     11.65891 
    8310    290.83198    9.3606531   -109.39629    144.85003    11.683237 
    8320    292.60708    9.4177859   -109.42297    223.18104    11.708319 
    8330    294.32491    9.4730755   -109.44676    317.82505    11.734211 
    8340    295.93081    9.5247628   -109.46619    427.47392    11.760953 
    8350    297.43117     9.573053    -109.4817    548.53231    11.788559 
    8360    298.86987    9.6193588   -109.49498     673.9705    11.817019 
    8370    300.25095    9.6638099   -109.50639    797.06719    11.846297 
    8380    301.49996    9.7040102   -109.51377    912.95264    11.876347 
    8390     302.4815    9.7356018   -109.51297     1011.973    11.907117 
    8400     303.0334     9.753365   -109.49899    1078.7984    11.938551 
    8410     302.9972    9.7521999   -109.46686    1102.5862    11.970583 
    8420    302.32344    9.7305145   -109.41505    1085.4908     12.00312 
    8430    301.18548    9.6938883   -109.34907    1037.4786    12.036044 
    8440    299.93347    9.6535915   -109.28006    967.31122    12.069219 
    8450    298.92309    9.6210715   -109.21924    883.20715    12.102499 
    8460    298.37601    9.6034633   -109.17357    786.19441    12.135732 
    8470     298.3018    9.6010751    -109.1432     681.7171    12.168766 
    8480    298.49104    9.6071658   -109.12136     575.5939    12.201456 
    8490    298.66731    9.6128391   -109.09915    466.78627    12.233656 
    8500    298.58322    9.6101327   -109.06865    357.94385    12.265223 
    8510     298.0624    9.5933697    -109.0242    257.25941    12.296015 
    8520    297.08927    9.5620488   -108.96526    174.03741    12.325893 
    8530    295.84919    9.5221359   -108.89767    114.18766    12.354722 
    8540    294.68487    9.4846612   -108.83228    79.846078    12.382394 
    8550    293.99055    9.4623142   -108.78159    69.114853    12.408841 
    8560    294.07622    9.4650714    -108.7554    79.983102    12.434044 
    8570    295.01998    9.4954471   -108.75617    116.63526    12.458025 
    8580    296.59259    9.5460627   -108.77659    184.29711    12.480835 
    8590    298.37837    9.6035394   -108.80346    275.04046    12.502538 
    8600     300.0501    9.6573454   -108.82653    371.04386    12.523194 
    8610    301.58769    9.7068339   -108.84543    452.48498    12.542855 
    8620    303.29337    9.7617325   -108.87016    499.78383    12.561574 
    8630    305.58243    9.8354075   -108.91435    498.10948    12.579413 
    8640    308.64095    9.9338487   -108.98433    443.91962     12.59646 
    8650    312.18576    10.047941   -109.07143    350.01853    12.612825 
    8660    315.50705    10.154839   -109.15344    240.58445    12.628625 
    8670    317.73823    10.226652    -109.2031    139.93311    12.643968 
    8680    318.19941    10.241495   -109.19904    64.052892    12.658928 
    8690    316.68819    10.192855   -109.13494    20.068687    12.673529 
    8700    313.56244    10.092251   -109.02213    8.8686516    12.687738 
    8710    309.57948    9.9640558   -108.88447     25.65399    12.701471 
    8720    305.58047    9.8353445   -108.74835    68.107996    12.714603 
    8730    302.22584    9.7273731    -108.6343    131.99658    12.726994 
    8740    299.95799    9.6543806     -108.556    203.53852    12.738515 
    8750    299.02522    9.6243589   -108.52103     268.8967    12.749079 
    8760    299.45574    9.6382155   -108.53012    325.14032    12.758662 
    8770    301.04456    9.6893529   -108.57674     380.4274    12.767315 
    8780    303.39907    9.7651345   -108.64847    442.10092    12.775164 
    8790    306.01759    9.8494137   -108.72956    501.90603    12.782392 
    8800    308.40711    9.9263221   -108.80458     540.5749    12.789221 
    8810    310.23571     9.985177   -108.86325    552.70688    12.795876 
    8820    311.39887    10.022614   -108.90254    548.92092    12.802574 
    8830    311.93352    10.039822   -108.92386    542.72304    12.809504 
    8840    311.90443    10.038886   -108.92939    545.88989    12.816821 
    8850    311.27629    10.018669   -108.91796    565.73141    12.824635 
    8860    309.86357    9.9731994   -108.88348    606.29945    12.833004 
    8870    307.41881    9.8945128   -108.81768    666.26863    12.841934 
    8880    303.80959    9.7783474   -108.71582    739.44891    12.851389 
    8890    299.16176    9.6287535   -108.58127    816.45632    12.861304 
    8900    293.90355    9.4595139     -108.427    894.79383    12.871601 
    8910    288.73003        9.293   -108.27456    974.30882    12.882211 
    8920    284.41024    9.1539643   -108.14795    1047.2561    12.893088 
    8930    281.53904    9.0615526   -108.06576    1098.8775    12.904225 
    8940    280.34195    9.0230233   -108.03492    1109.0134     12.91565 
    8950    280.64816    9.0328789   -108.04981    1057.1547    12.927426 
    8960    282.05689    9.0782199   -108.09757    945.11615    12.939628 
    8970    284.16937    9.1462116   -108.16558    797.24939    12.952325 
    8980    286.66341    9.2264844   -108.24373    642.95274    12.965561 
    8990    289.27708    9.3106072   -108.32396    509.60231    12.979345 
    9000    291.77834    9.3911124   -108.39916    409.75983    12.993654 
    9010    293.97894    9.4619405   -108.46364    339.27972    13.008429 
    9020    295.78379     9.520031   -108.51469    293.92164    13.023593 
    9030    297.17824    9.5649123   -108.55213    275.62485    13.039059 
    9040    298.18148    9.5972024   -108.57681    283.40218    13.054737 
    9050    298.80424    9.6172464   -108.58924    308.18009    13.070533 
    9060    299.05883    9.6254406   -108.58992    340.03834    13.086345 
    9070    299.01451    9.6240141   -108.58114    372.69407    13.102056 
    9080    298.83711    9.6183044   -108.56824    402.76155    13.117531 
    9090    298.79874    9.6170695   -108.55995    429.57225    13.132626 
    9100    299.20982    9.6303004   -108.56625    453.02509    13.147214 
    9110    300.27238    9.6644997   -108.59371    473.79789    13.161199 
    9120    302.03685    9.7212905    -108.6441    498.81579    13.174541 
    9130    304.46517    9.7994479   -108.71649    533.30506    13.187264 
    9140    307.42399    9.8946798   -108.80697     580.7879     13.19945 
    9150    310.66442    9.9989756   -108.90804     643.1579    13.211224 
    9160    313.88268    10.102558    -109.0105    718.61965    13.222729 
    9170    316.82774    10.197347   -109.10686     801.3605    13.234109 
    9180    319.33928    10.278182    -109.1925    882.21869     13.24549 
    9190    321.32743    10.342173   -109.26502    949.48572    13.256981 
    9200    322.77466    10.388753   -109.32423     992.9589     13.26867 
    9210    323.74261    10.419907   -109.37239     1009.749    13.280625 
    9220     324.3478    10.439386   -109.41342    1008.0742    13.292892 
    9230    324.69969    10.450712   -109.45095    998.24222     13.30547 
    9240    324.83515    10.455071   -109.48623    984.51337    13.318312 
    9250    324.67088    10.449784   -109.51658    968.51473    13.331325 
    9260    324.04561    10.429659   -109.53671    950.99199    13.344382 
    9270    322.77903    10.388894   -109.54062    929.76016     13.35732 
    9280    320.72997    10.322943   -109.52339    895.18526     13.36995 
    9290    317.89229     10.23161   -109.48429     837.9746    13.382081 
    9300    314.48313    10.121883   -109.42963    757.53081    13.393529 
    9310    310.91601    10.007073   -109.37201    660.96425    13.404138 
    9320    307.61436     9.900807   -109.32441    553.94387    13.413805 
    9330    304.84048    9.8115274   -109.29475    436.98834    13.422493 
    9340    302.64612    9.7409003   -109.28433    313.56005    13.430242 
    9350    300.91878    9.6853045   -109.28924    192.39924    13.437154 
    9360    299.50255     9.639722   -109.30425     85.53814    13.443378 
    9370      298.325    9.6018217   -109.32685    4.2857543    13.449079 
    9380    297.50685    9.5754888   -109.36078   -48.100975     13.45442 
    9390    297.34867    9.5703978    -109.4157   -78.334983    13.459548 
    9400    298.15707    9.5964167   -109.50163    -97.89862    13.464603 
    9410    300.05594    9.6575334    -109.6229   -118.10639    13.469734 
    9420    302.90362    9.7491881   -109.77546   -146.25087    13.475108 
    9430     306.3214    9.8591918   -109.94775   -189.66416    13.480911 
    9440    309.75698    9.9697687   -110.12263   -254.45338    13.487342 
    9450    312.60031    10.061283   -110.28098   -330.35056    13.494597 
    9460    314.32034    10.116644   -110.40601   -394.51903     13.50286 
    9470    314.54737    10.123951   -110.48584   -427.53259    13.512287 
    9480     313.1687    10.079578   -110.51648   -418.99844    13.522988 
    9490    310.29076    9.9869488   -110.50073   -375.73387    13.535011 
    9500     306.0905    9.8517604   -110.44339   -314.07974     13.54833 
    9510    300.81303    9.6819009    -110.3513    -244.5283    13.562842 
    9520    294.85286    9.4900681   -110.23604   -178.65981    13.578379 
    9530    288.74168    9.2933752   -110.11366   -119.49125    13.594729 
    9540    283.07013     9.110832   -110.00233   -63.065835    13.611658 
    9550    278.42138    8.9612083   -109.92021   -11.527785     13.62894 
    9560    275.27458    8.8599261   -109.88245     26.31198    13.646371 
    9570    273.85695    8.8142985   -109.89637    39.227146    13.663789 
    9580    274.02304    8.8196443   -109.95749    21.950728     13.68109 
    9590    275.29743    8.8606614   -110.05084   -20.192524    13.698224 
    9600    277.08409    8.9181666   -110.15753   -80.233412    13.715193 
    9610    278.88871    8.9762497   -110.26195   -153.61393    13.732042 
    9620     280.4386    9.0261339   -110.35553   -233.69473    13.748852 
    9630    281.68816    9.0663521   -110.43696    -312.3899    13.765722 
    9640    282.73611    9.1000812   -110.50957   -383.39471    13.782751 
    9650    283.71474    9.1315791   -110.57775   -445.18759    13.800022 
    9660    284.69074    9.1629926   -110.64377   -501.77526    13.817596 
    9670    285.59115    9.1919729   -110.70543   -559.13126    13.835504 
    9680    286.22423    9.2123488   -110.75665   -611.31244    13.853744 
    9690     286.3409    9.2161042   -110.78948   -647.03648    13.872276 
    9700    285.71711    9.1960269   -110.79664   -664.97278     13.89105 
    9710    284.27771    9.1496988   -110.77555   -670.22359    13.910022 
    9720    282.17003    9.0818615   -110.73069   -670.47276    13.929164 
    9730    279.70151    9.0024102   -110.67163   -668.95171    13.948469 
    9740    277.19521    8.9217428   -110.60843   -663.80975     13.96795 
    9750    274.89125    8.8475883   -110.54851   -652.51128    13.987641 
    9760    272.91419    8.7839549   -110.49559   -628.45297      14.0076 
    9770    271.30558    8.7321805   -110.45078   -587.35799    14.027908 
    9780    270.09872     8.693337   -110.41497   -529.56902    14.048675 
    9790     269.3259    8.6684631   -110.38906   -456.68951    14.070031 
    9800    268.98217    8.6573998    -110.3728   -373.23716     14.09213 
    9810    269.00273    8.6580617   -110.36405   -288.06407    14.115131 
    9820    269.25922    8.6663171   -110.35868   -214.03464    14.139178 
    9830    269.57282    8.6764105   -110.35094    -159.9245    14.164383 
    9840    269.74029    8.6818007   -110.33433   -115.85082    14.190801 
    9850    269.54224    8.6754261   -110.30182   -64.048717    14.218417 
    9860    268.82549    8.6523569   -110.24851    2.1034766    14.247127 
    9870    267.67348    8.6152788   -110.17706    77.157823    14.276739 
    9880    266.46331    8.5763283   -110.09952    151.70033    14.306988 
    9890    265.73578    8.5529124   -110.03316    222.17859     14.33757 
    9900    265.99716    8.5613251   -109.99408    292.52638    14.368179 
    9910    267.55359    8.6114198   -109.99198    365.19636     14.39853 
    9920    270.41266    8.7034413   -110.02705    435.40005    14.428377 
    9930    274.28122    8.8279539   -110.08994     492.6918     14.45751 
    9940    278.65661    8.9687792    -110.1648    530.54162     14.48576 
    9950    282.97162    9.1076612   -110.23388       551.83    14.512974 
    9960    286.71898    9.2282728   -110.28152    559.01863    14.539007 
    9970    289.52924    9.3187234   -110.29659    550.37535    14.563692 
    9980    291.24883    9.3740696   -110.27482    527.70329    14.586841 
    9990     291.9657    9.3971428    -110.2196    494.50984    14.608232 
   10000    291.92303    9.3957691   -110.13912    455.89715    14.627631 
   10010    291.39537    9.3787862   -110.04239    419.86535    14.644799 
   10020    290.63233    9.3542272   -109.93746    393.85539    14.659515 
   10030      289.848    9.3289827   -109.83117    386.70701    14.671587 
   10040    289.18699    9.3077078   -109.72805    402.84666    14.680883 
   10050    288.69446    9.2918553   -109.62941      432.895    14.687362 
   10060    288.32768    9.2800501   -109.53378    460.87445    14.691086 
   10070    288.03468    9.2706198   -109.43942    478.67192     14.69222 
   10080    287.82877    9.2639924    -109.3467    489.47292    14.691013 
   10090    287.81234    9.2634634   -109.25887    494.47715    14.687776 
   10100    288.19114    9.2756554   -109.18248    492.28855    14.682872 
   10110    289.23817    9.3093551   -109.12623    479.88265    14.676705 
   10120    291.18364    9.3719716   -109.09745     456.9709    14.669714 
   10130    294.13055    9.4668201   -109.09949    424.56435    14.662372 
   10140    298.00894    9.5916489   -109.13022     389.8427    14.655177 
   10150    302.55188     9.737867   -109.18143    365.03765    14.648618 
   10160    307.36608    9.8928158   -109.24105    364.49852    14.643137 
   10170     312.0387    10.043208   -109.29658    398.07818    14.639102 
   10180     316.2404    10.178443   -109.33835    468.86709    14.636798 
[...]
  197500    317.13358     10.20719   -109.19988   -182.01724    340.29767 
  197510    316.73291    10.194295   -109.16195   -73.490928    340.37952 
  197520    316.97112    10.201962   -109.14794    50.702337    340.46219 
  197530    317.64728    10.223724   -109.15134    190.92984    340.54475 
  197540    318.56753    10.253343   -109.16598    343.18734    340.62664 
  197550    319.62916    10.287512   -109.18867    504.30127    340.70757 
  197560    320.76399    10.324038    -109.2174     674.7524    340.78748 
  197570    321.82949    10.358332   -109.24781     855.0398     340.8664 
  197580    322.54767    10.381447   -109.27116    1034.0315    340.94441 
  197590    322.53878    10.381161   -109.27541    1194.1035    341.02159 
  197600    321.53446    10.348836   -109.25194    1326.4402    341.09803 
  197610    319.63365    10.287657   -109.20381    1427.7574    341.17381 
  197620    317.30433    10.212686   -109.14583    1491.5568    341.24906 
  197630    315.17407    10.144122   -109.09789    1514.7313    341.32393 
  197640    313.75363    10.098404   -109.07624    1504.6526    341.39873 
  197650    313.26307    10.082615   -109.08795    1464.7023    341.47381 
  197660    313.65123    10.095108   -109.13159    1395.7604    341.54959 
  197670    314.76418     10.13093   -109.20261    1304.5743    341.62646 
  197680    316.47345    10.185944   -109.29749    1195.2053    341.70482 
  197690    318.67432     10.25678   -109.41362    1067.3595    341.78501 
  197700    321.24378     10.33948   -109.54796    922.08266    341.86726 
  197710    324.01287    10.428606    -109.6961    764.05628    341.95165 
  197720    326.76968    10.517336   -109.85229    603.74212    342.03798 
  197730     329.2448    10.596999   -110.00885    449.11905    342.12584 
  197740    331.00782    10.653743   -110.15259    301.89493    342.21456 
  197750    331.40817    10.666629   -110.26263    166.84393    342.30328 
  197760    329.80698    10.615094    -110.3174    60.786589    342.39094 
  197770    325.92563    10.490169   -110.30562   -4.0526054    342.47638 
  197780    319.91884    10.296836   -110.22875   -23.949705    342.55842 
  197790     312.3621    10.053617   -110.10096   -6.0548813    342.63598 
  197800    304.15534    9.7894756    -109.9468    39.669172     342.7082 
  197810    296.29685    9.5365442   -109.79472    107.22559    342.77453 
  197820    289.64958    9.3225966      -109.67     188.8861    342.83475 
  197830    284.74087     9.164606   -109.58851    270.78464    342.88894 
  197840    281.69893    9.0666987   -109.55446    343.05793    342.93744 
  197850    280.31925    9.0222928   -109.56215     405.5781     342.9809 
  197860    280.12907    9.0161716   -109.59775    460.02033    343.02023 
  197870    280.54958    9.0297059   -109.64414    503.91441    343.05654 
  197880    281.09151    9.0471483   -109.68708    534.40823    343.09106 
  197890    281.48602     9.059846   -109.71921    553.69459      343.125 
  197900    281.72543    9.0675517   -109.74138    568.21653    343.15949 
  197910    281.99367    9.0761853   -109.76034    583.81892    343.19545 
  197920    282.54675    9.0939865   -109.78502    603.25145    343.23367 
  197930     283.5852    9.1274096   -109.82241    626.46648    343.27471 
  197940    285.15107    9.1778083   -109.87434    654.28768    343.31902 
  197950    287.10041    9.2405494    -109.9366    692.46399    343.36695 
  197960    289.17209     9.307228   -110.00119    747.42829     343.4188 
  197970    291.06139    9.3680368   -110.05866    826.29966    343.47477 
  197980    292.51031    9.4146714   -110.10102    927.33289    343.53481 
  197990    293.40147    9.4433541   -110.12471    1036.8281    343.59856 
  198000    293.74433    9.4543892   -110.13019    1143.3879    343.66528 
  198010    293.55165    9.4481876    -110.1179    1239.1132    343.73385 
  198020    292.81876     9.424599   -110.08766    1309.8181    343.80291 
  198030     291.5774    9.3846449   -110.04037     1344.801    343.87094 
  198040    289.92322    9.3314037   -109.97891    1339.7859    343.93647 
  198050    288.03114    9.2705056   -109.90865    1291.4066    343.99818 
  198060    286.14376    9.2097591   -109.83712    1199.9178    344.05508 
  198070    284.49087    9.1565595   -109.77141    1074.7976    344.10659 
  198080    283.21557    9.1155131   -109.71587    934.71689    344.15255 
  198090    282.39534    9.0891132   -109.67276    799.31691    344.19315 
  198100    282.12982    9.0805673    -109.6451     678.4229    344.22877 
  198110    282.60832    9.0959682   -109.63889    571.15858    344.25984 
  198120    284.09959    9.1439659   -109.66274    474.31227    344.28676 
  198130    286.82923    9.2318215     -109.724    388.15535    344.30976 
  198140     290.7633    9.3584424   -109.82182    318.36642    344.32893 
  198150    295.46597    9.5098016   -109.94263    273.56753    344.34419 
  198160    300.15686    9.6607816   -110.06195    260.91927    344.35544 
  198170    303.94051    9.7825612   -110.15175    289.40576    344.36262 
  198180    306.09794    9.8519996   -110.18965    362.63997    344.36578 
  198190    306.26443    9.8573583   -110.16445    472.09014    344.36511 
  198200    304.47204    9.7996688   -110.07741    602.35789    344.36095 
  198210    301.13833     9.692371   -109.94186    741.25295    344.35378 
  198220    296.96421    9.5580237   -109.77991    877.36371    344.34417 
  198230    292.73876     9.422024   -109.61633    1003.5879    344.33277 
  198240    289.16131    9.3068812   -109.47294    1113.4062    344.32022 
  198250    286.71413    9.2281168   -109.36463    1197.1079    344.30712 
  198260    285.61192    9.1926414   -109.29782    1245.3633    344.29394 
  198270    285.84692    9.2002049   -109.27194    1252.8062    344.28107 
  198280    287.25094    9.2453944   -109.28146    1221.8203    344.26877 
  198290    289.53441    9.3188898   -109.31713     1159.794    344.25715 
  198300    292.31443    9.4083667   -109.36689    1076.9784     344.2462 
  198310    295.18241    9.5006749   -109.41799    983.95196    344.23582 
  198320    297.77584    9.5841465   -109.45926    890.31045    344.22578 
  198330    299.81206    9.6496839   -109.48212    804.41001    344.21578 
  198340    301.14064    9.6924452   -109.48219    731.70999    344.20539 
  198350    301.77267    9.7127876   -109.46021    673.32902    344.19411 
  198360    301.84554    9.7151331   -109.42084     627.6699    344.18134 
  198370    301.54155    9.7053488   -109.37006    590.50367    344.16643 
  198380    301.01347    9.6883521    -109.3128    561.52699    344.14864 
  198390    300.34002    9.6666768   -109.25158    548.56747    344.12723 
  198400    299.52238    9.6403604   -109.18633    563.11789    344.10155 
  198410    298.54685    9.6089621   -109.11653    608.73128    344.07108 
  198420    297.52476    9.5760653   -109.04562    681.96782    344.03554 
  198430    296.79502    9.5525779   -108.98435    781.27149    343.99496 
  198440    296.83879    9.5539868   -108.94804    903.22757    343.94965 
  198450    298.07641    9.5938207   -108.95012    1039.6574    343.90013 
  198460    300.67056    9.6773154   -108.99589     1178.468    343.84707 
  198470    304.38234    9.7967817   -109.07792    1308.3062    343.79115 
  198480    308.62761    9.9334191   -109.17792    1422.1129      343.733 
  198490    312.69938    10.064472   -109.27385    1516.6294    343.67313 
  198500    315.96929    10.169717   -109.34625    1590.7167    343.61189 
  198510    318.03057    10.236061   -109.38269    1645.7178    343.54939 
  198520     318.8017     10.26088   -109.38103    1686.0431     343.4855 
  198530    318.52884    10.252098   -109.34939    1713.3505     343.4199 
  198540    317.67027    10.224464   -109.30251    1721.7017    343.35217 
  198550    316.74221    10.194594   -109.25682     1704.476    343.28196 
  198560    316.13589    10.175079   -109.22472    1664.2962    343.20911 
  198570    315.95842    10.169367   -109.20949    1609.4154    343.13379 
  198580    316.04183    10.172052   -109.20568    1548.7283    343.05645 
  198590    316.13725    10.175123   -109.20529    1490.4294    342.97777 
  198600    316.07877    10.173241   -109.20302    1439.1184    342.89865 
  198610    315.81034    10.164601   -109.19708    1392.4535    342.82002 
  198620    315.37328    10.150534   -109.18883    1340.9376     342.7428 
  198630    314.85259    10.133775   -109.18098    1276.7615    342.66782 
  198640    314.29598     10.11586   -109.17507    1195.4776    342.59578 
  198650    313.66964    10.095701   -109.17002    1098.0796    342.52729 
  198660    312.82612    10.068551   -109.16108     997.6698    342.46294 
  198670     311.5479    10.027411   -109.14122    905.88448    342.40331 
  198680    309.67716    9.9671997   -109.10525    825.00924    342.34899 
  198690    307.21401    9.8879213   -109.05294    755.36033    342.30054 
  198700    304.33027     9.795106   -108.98951    696.62633    342.25842 
  198710    301.30203    9.6976396   -108.92349    643.75451    342.22286 
  198720    298.38249     9.603672   -108.86264    591.06143    342.19385 
  198730    295.72712    9.5182067   -108.81166    540.35414    342.17107 
  198740    293.40301    9.4434036   -108.77241    500.12639    342.15395 
  198750    291.40172    9.3789904   -108.74442    477.77344    342.14166 
  198760    289.68353    9.3236894   -108.72623    469.11361    342.13322 
  198770    288.21054      9.27628   -108.71647    462.54836    342.12748 
  198780    286.92513     9.234908   -108.71318    454.03555    342.12321 
  198790    285.77193    9.1977915   -108.71449    448.37678    342.11916 
  198800    284.78629    9.1660679   -108.72145    450.56893    342.11414 
  198810     284.1299    9.1449412   -108.73923    460.83746    342.10715 
  198820    284.02299    9.1415002   -108.77493     478.4958    342.09739 
  198830    284.59279    9.1598398   -108.83281    503.71049    342.08432 
  198840    285.72818    9.1963833   -108.90952    530.80152    342.06769 
  198850     287.0672    9.2394808   -108.99374    554.32777    342.04758 
  198860    288.11631    9.2732469   -109.06986    583.52037    342.02442 
  198870    288.40814    9.2826399   -109.12301    634.38395    341.99899 
  198880    287.65304    9.2583362   -109.14387    714.64966    341.97227 
  198890    285.80378    9.1988166    -109.1307    818.90711    341.94535 
  198900    283.05578      9.11037   -109.08938    929.42743    341.91937 
  198910    279.79189    9.0053193   -109.03169    1026.3103    341.89541 
  198920    276.43889    8.8974002   -108.97077     1089.898    341.87447 
  198930    273.32455    8.7971629   -108.91661    1110.0633    341.85734 
  198940    270.63593    8.7106276   -108.87474    1085.7574    341.84448 
  198950    268.48432    8.6413763   -108.84829     1021.492    341.83601 
  198960     267.0262    8.5944456   -108.84197    926.58144    341.83169 
  198970    266.52787    8.5784063   -108.86413    811.50652    341.83099 
  198980    267.27042    8.6023059   -108.92377    679.20768    341.83324 
  198990    269.32833    8.6685414   -109.02342    523.49824    341.83774 
  199000     272.4913    8.7703439   -109.15658    346.25026    341.84388 
  199010     276.3997    8.8961389   -109.31211    158.64788    341.85116 
  199020    280.54719    9.0296291    -109.4742   -25.765961    341.85926 
  199030    284.31802    9.1509961   -109.62358   -191.58574    341.86808 
  199040    287.17765    9.2430357   -109.74349   -327.48103    341.87775 
  199050     288.8501    9.2968647   -109.82541    -429.0078    341.88862 
  199060    289.33898    9.3125998   -109.86964   -495.77134    341.90115 
  199070     288.8426    9.2966232   -109.88259   -527.42368    341.91583 
  199080    287.66192    9.2586223   -109.87385   -530.32558    341.93311 
  199090    286.09699    9.2082535   -109.85288   -518.22402    341.95334 
  199100     284.3952    9.1534803   -109.82742   -502.81423    341.97675 
  199110    282.72612    9.0997597   -109.80266   -491.78127    342.00348 
  199120    281.22041    9.0512973   -109.78256   -487.88276    342.03364 
  199130    280.03814    9.0132448   -109.77204   -494.52524     342.0674 
  199140     279.4091    8.9929987   -109.77833   -516.73185    342.10495 
  199150    279.61688    8.9996863   -109.81048    -557.9322     342.1465 
  199160     280.9115    9.0413547   -109.87659   -612.99232    342.19222 
  199170    283.37815    9.1207456   -109.97963   -671.27381    342.24216 
  199180    286.81859    9.2314788   -110.11362   -723.60067    342.29619 
  199190    290.75617    9.3582131   -110.26378   -757.37477    342.35401 
  199200    294.54336    9.4801067   -110.40989   -755.35595     342.4151 
  199210    297.42355    9.5728078   -110.52821   -706.06698    342.47879 
  199220    298.63955    9.6119457   -110.59482   -605.10723     342.5442 
  199230    297.69191     9.581445   -110.59375   -453.06967    342.61024 
  199240    294.57743    9.4812031   -110.52463   -263.75283    342.67572 
  199250    289.82658    9.3282934   -110.40386   -63.197046    342.73943 
  199260     284.3605    9.1523635   -110.26022     116.2785    342.80035 
  199270    279.21584    8.9867784   -110.12618    251.61762    342.85777 
  199280    275.21792    8.8581025   -110.02754     335.5827    342.91149 
  199290    272.77724    8.7795471   -109.97699     362.5642    342.96183 
  199300    271.86588    8.7502144   -109.97331    328.07375    343.00951 
  199310    272.16137     8.759725   -110.00596    238.77284    343.05547 
  199320    273.23808    8.7943798    -110.0612    113.88156    343.10072 
  199330    274.70567    8.8416151    -110.1265   -24.080695    343.14614 
  199340    276.26848    8.8919156    -110.1924   -157.69992    343.19239 
  199350    277.75166    8.9396529   -110.25334   -275.18903    343.23986 
  199360    279.09236    8.9828041   -110.30735   -370.30035    343.28866 
  199370    280.27274    9.0207958   -110.35392    -443.0978     343.3386 
  199380    281.27019    9.0528995   -110.39235   -497.59902    343.38928 
  199390    282.05784    9.0782504   -110.42177   -534.52466    343.44016 
  199400    282.57614    9.0949325   -110.44027   -553.29332     343.4907 
  199410    282.76111    9.1008857   -110.44572   -557.17957    343.54034 
  199420    282.56899    9.0947022    -110.4366   -553.61634    343.58851 
  199430    281.99446    9.0762106   -110.41259   -544.95662    343.63465 
  199440    281.07041    9.0464691   -110.37452   -531.25141    343.67826 
  199450    279.79689    9.0054801   -110.32213   -509.13853    343.71901 
  199460    278.13259    8.9519132   -110.25375   -474.99209    343.75674 
  199470    276.07525    8.8856963   -110.16893   -432.60884    343.79158 
  199480    273.73302    8.8103097    -110.0707   -389.58938    343.82393 
  199490    271.36763    8.7341777   -109.96703   -352.11872    343.85436 
  199500    269.40458    8.6709954    -109.8711   -325.93063    343.88355 
  199510    268.36393    8.6375014   -109.79918   -318.98036    343.91216 
  199520    268.76562      8.65043   -109.76756    -336.2812    343.94083 
  199530    271.01076    8.7226915   -109.78885    -378.7938    343.97008 
  199540    275.20872    8.8578062   -109.86649   -444.48177    344.00037 
  199550    281.09703    9.0473261   -109.99232   -521.80362    344.03209 
  199560    288.08258    9.2721614   -110.14799   -591.08053     344.0656 
  199570    295.29014    9.5041423   -110.30664   -631.18752    344.10123 
  199580    301.68338    9.7099138   -110.43668   -627.59732    344.13928 
  199590    306.29752    9.8584234   -110.50907   -573.66755    344.18003 
  199600    308.45505    9.9278652   -110.50397   -461.86789    344.22372 
  199610    307.91349    9.9104347    -110.4151   -290.83358    344.27053 
  199620    304.93511    9.8145731   -110.25178   -73.962744    344.32053 
  199630    300.23733    9.6633715   -110.03729    166.26926    344.37357 
  199640    294.85915    9.4902706   -109.80465    407.18779    344.42925 
  199650    289.97747    9.3331498   -109.59098    631.35621    344.48695 
  199660    286.65514     9.226218    -109.4296    823.29937    344.54592 
  199670    285.62712    9.1931305   -109.34337    970.15581     344.6054 
  199680    287.17892    9.2430764   -109.34096     1068.484    344.66474 
  199690    291.05446    9.3678136   -109.41399    1123.9021    344.72347 
  199700     296.4631     9.541895   -109.53733     1145.211     344.7814 
  199710    302.25778    9.7284012   -109.67477    1143.9585     344.8386 
  199720    307.24339     9.888867   -109.78876    1131.6435    344.89538 
  199730    310.47601    9.9929115   -109.84984    1117.6814    344.95224 
  199740    311.49898    10.025837   -109.84394    1112.0472    345.00978 
  199750    310.45487    9.9922311   -109.77583    1119.0482     345.0686 
  199760    308.01016    9.9135462   -109.66667     1134.867    345.12921 
  199770    305.13327     9.820951   -109.54704    1148.9276     345.1919 
  199780    302.81616    9.7463732   -109.44814    1149.6729     345.2567 
  199790    301.84439    9.7150958   -109.39459    1134.1653    345.32342 
  199800     302.6473    9.7409382   -109.39979    1105.1857    345.39171 
  199810    305.23414    9.8241977   -109.46394    1070.2282    345.46115 
  199820    309.21636    9.9523685   -109.57473     1036.475    345.53123 
  199830    313.88857    10.102747   -109.70999    1001.2843    345.60134 
  199840    318.38202    10.247373   -109.84244    956.16717    345.67073 
  199850    321.86403    10.359444   -109.94601     896.1797    345.73848 
  199860    323.73041    10.419514   -110.00181    826.45323    345.80363 
  199870    323.71691     10.41908   -110.00161    758.87736     345.8652 
  199880    321.88716    10.360188   -109.94736    709.34869    345.92226 
  199890     318.5409    10.252486   -109.84824    692.76114    345.97394 
  199900    314.12567    10.110378   -109.71794    715.29674    346.01954 
  199910    309.17237    9.9509527   -109.57267    764.26689    346.05862 
  199920    304.20415    9.7910468   -109.42837    820.97663    346.09109 
  199930    299.67243    9.6451897   -109.29874    880.47524    346.11735 
  199940    295.93653    9.5249468   -109.19467    937.99965    346.13826 
  199950    293.24538      9.43833   -109.12365    983.69629    346.15508 
  199960    291.70731    9.3888262   -109.08884    1001.8069    346.16933 
  199970    291.26524    9.3745979   -109.08826    982.46198    346.18256 
  199980    291.74717    9.3901091   -109.11639    930.75403    346.19619 
  199990    292.86705    9.4261532   -109.16413    858.91034     346.2113 
  200000    294.28945    9.4719342   -109.22091    779.45984    346.22853 
Loop time of 37.7065 on 10 procs for 200000 steps with 250 atoms

Performance: 229.138 ns/day, 0.105 hours/ns, 5304.120 timesteps/s
98.4% CPU use with 10 MPI tasks x no OpenMP threads

MPI task timing breakdown:
Section |  min time  |  avg time  |  max time  |%varavg| %total
---------------------------------------------------------------
Pair    | 22.945     | 23.678     | 24.399     |   9.8 | 62.80
Neigh   | 0.92907    | 0.9773     | 1.0107     |   2.6 |  2.59
Comm    | 8.1949     | 9.0283     | 9.8679     |  18.4 | 23.94
Output  | 1.7747     | 1.8285     | 2.2753     |  11.0 |  4.85
Modify  | 1.9796     | 2.0407     | 2.0937     |   2.3 |  5.41
Other   |            | 0.1538     |            |       |  0.41

Nlocal:    25 ave 29 max 21 min
Histogram: 1 0 3 1 0 0 2 1 1 1
Nghost:    369.7 ave 380 max 358 min
Histogram: 3 0 0 0 1 1 1 0 2 2
Neighs:    0 ave 0 max 0 min
Histogram: 10 0 0 0 0 0 0 0 0 0
FullNghs:  843.4 ave 1009 max 705 min
Histogram: 1 0 3 1 0 2 1 1 0 1

Total # of neighbors = 8434
Ave neighs/atom = 33.736
Neighbor list builds = 20000
Dangerous builds not checked




Total wall time: 0:00:37
