LAMMPS (12 Dec 2018)
# Simulation of monatomic water
# Real units, atomic atom style (no bonded interactions)

variable        NAME string no_thermostat_220K_00
variable        TEMP string 220
variable        PRES string 1
variable        TCOUPL string 5000.0
variable        PCOUPL string 10000.0

units	   	    real
atom_style 	    atomic
log		        log.${NAME}
log		        log.no_thermostat_220K_00
